15
	Energy:     219.2532626
C         -1.22562        2.17106       -0.58255
C          4.70044        3.14529       -1.63768
F         -1.76095        3.41049       -0.28883
F         -1.27682        1.95996       -1.94693
F         -1.95750        1.19017        0.05901
F          4.44944        4.43828       -2.05456
F          5.90750        3.10592       -0.96642
F          4.75852        2.30923       -2.73607
S          0.50175        2.10478       -0.02589
S          3.37196        2.59800       -0.52932
N          1.71919        2.69827       -1.17907
O          0.72662        2.88866        1.27609
O          0.93448        0.68090        0.35526
O          3.35906        3.37924        0.79330
O          3.56467        1.14615       -0.06594
