15
 energy: -58.233124635312 gnorm: 0.000353527250 xtb: 6.7.1 (edcfbbe)
C           -0.75847998908825        2.43500804310361       -0.63271006816745
C            4.20694118106081        2.93354490963673       -1.62761093558056
F           -0.81459285087935        3.63243892516541       -0.08737783937363
F           -0.78656545385353        2.53488138619301       -1.94451845023871
F           -1.78712029719209        1.71598810283134       -0.22220764796911
F            3.73306858112495        3.80833707801453       -2.48791344747559
F            5.44348630189247        3.25923673797707       -1.29945252998376
F            4.19536160123007        1.72719233484228       -2.15463171767621
S            0.86336787051896        1.52627160024938       -0.08031686739091
S            3.13791943785327        2.96194126586120       -0.00424188379757
N            1.80122411531428        2.60343466285710       -0.78773357830081
O            0.86428357352674        1.62773768435086        1.33260829794822
O            0.77991964247520        0.27295274284142       -0.73265452362724
O            3.25099476814194        4.30277194249529        0.43437454587426
O            3.64293151787452        1.88466258357981        0.76478664575899
