15
 energy: -58.628657892329 gnorm: 0.000262349456 xtb: 6.7.1 (edcfbbe)
C           -0.56812894048342        2.50663249387339       -0.80712582693827
C            3.76863576305346        2.62481539783711       -1.60181394465283
F           -1.20784274012772        3.39665454307150       -0.04078218351507
F           -0.28942410692622        3.11339907214673       -1.96329150583198
F           -1.45326002294094        1.53514642782543       -1.08497706767666
F            2.77532715410163        2.91876313789030       -2.44488896872154
F            4.81682315142094        3.37971421253277       -1.98368576457886
F            4.13361270608542        1.36239865479841       -1.80804375583895
S            0.97888930824216        1.82638739554004        0.05015732204015
S            3.31488931336575        3.01529904621154        0.20965868680038
N            1.75186521662117        3.19874149791316        0.17855370637292
O            0.45446187824783        1.28449657244634        1.26552453224205
O            1.54905300260806        0.92156919414167       -0.89942425788906
O            3.97662769179304        4.26300626061043        0.44940807829367
O            3.77121062493805        1.87937609316077        0.95113094989340
