
                                 *****************
                                 * O   R   C   A *
                                 *****************

                                            #,                                       
                                            ###                                      
                                            ####                                     
                                            #####                                    
                                            ######                                   
                                           ########,                                 
                                     ,,################,,,,,                         
                               ,,#################################,,                 
                          ,,##########################################,,             
                       ,#########################################, ''#####,          
                    ,#############################################,,   '####,        
                  ,##################################################,,,,####,       
                ,###########''''           ''''###############################       
              ,#####''   ,,,,##########,,,,          '''####'''          '####       
            ,##' ,,,,###########################,,,                        '##       
           ' ,,###''''                  '''############,,,                           
         ,,##''                                '''############,,,,        ,,,,,,###''
      ,#''                                            '''#######################'''  
     '                                                          ''''####''''         
             ,#######,   #######,   ,#######,      ##                                
            ,#'     '#,  ##    ##  ,#'     '#,    #''#        ,####,   ,####,        
            ##       ##  ##   ,#'  ##            #'  '#       #'       #'  '#        
            ##       ##  #######   ##           ,######,      #####,   #    #        
            '#,     ,#'  ##    ##  '#,     ,#' ,#      #,     #,   #   #,  ,#        
             '#######'   ##     ##  '#######'  #'      '#     '####' # '####'        



                #########################################################
                #                        -***-                          #
                #          Department of theory and spectroscopy        #
                #                                                       #
                #                      Frank Neese                      #
                #                                                       #
                #     Directorship, Architecture, Infrastructure        #
                #                    SHARK, DRIVERS                     #
                #        Core code/Algorithms in most modules           #
                #                                                       #
                #        Max Planck Institute fuer Kohlenforschung      #
                #                Kaiser Wilhelm Platz 1                 #
                #                 D-45470 Muelheim/Ruhr                 #
                #                      Germany                          #
                #                                                       #
                #                  All rights reserved                  #
                #                        -***-                          #
                #########################################################


                         Program Version 6.0.1  -  RELEASE   -


 With contributions from (in alphabetic order):
[Max-Planck-Institut fuer Kohlenforschung]                               
  Daniel Aravena         : Magnetic Suceptibility                        
  Michael Atanasov       : Ab Initio Ligand Field Theory (pilot matlab implementation)
  Alexander A. Auer      : GIAO ZORA, VPT2 properties, NMR spectrum      
  Ute Becker             : All parallelization in ORCA, NUMFREQ, NUMCALC 
  Giovanni Bistoni       : ED, misc. LED, open-shell LED, HFLD           
  Martin Brehm           : Molecular dynamics                            
  Dmytro Bykov           : pre 5.0 version of the SCF Hessian            
  Marcos Casanova-Páez   : Triplet and SCS-CIS(D). UHF-(DLPNO)-IP/EA/STEOM-CCSD. UHF-CVS-IP/STEOM-CCSD   
  Vijay G. Chilkuri      : MRCI spin determinant printing, contributions to CSF-ICE 
  Pauline Colinet        : FMM embedding                                 
  Dipayan Datta          : RHF DLPNO-CCSD density                        
  Achintya Kumar Dutta   : EOM-CC, STEOM-CC                              
  Nicolas Foglia         : Exact transition moments, OPA infrastructure, MCD improvements    
  Dmitry Ganyushin       : Spin-Orbit,Spin-Spin,Magnetic field MRCI      
  Miquel Garcia-Rates    : C-PCM and meta-GGA Hessian, CCSD/C-PCM, Gaussian charge scheme 
  Tiago L. C. Gouveia    : GS-ROHF, GS-ROCIS                             
  Yang Guo               : DLPNO-NEVPT2, F12-NEVPT2, CIM, IAO-localization        
  Andreas Hansen         : Spin unrestricted coupled pair/coupled cluster methods 
  Ingolf Harden          : AUTO-CI MPn and infrastructure                
  Benjamin Helmich-Paris : MC-RPA, TRAH-(SCF,CASSCF), AVAS, COSX integrals, SCF dyn. polar. 
  Lee Huntington         : MR-EOM, pCC                                   
  Robert Izsak           : Overlap fitted RIJCOSX, COSX-SCS-MP3, EOM     
  Riya Kayal             : Wick's Theorem for AUTO-CI, AUTO-CI UHF-CCSDT 
  Emily Kempfer          : AUTO-CI, RHF CISDT and CCSDT                  
  Christian Kollmar      : KDIIS, OOCD, Brueckner-CCSD(T), CCSD density, CASPT2, CASPT2-K, improved NEVPT2 
  Axel Koslowski         : Symmetry handling                             
  Simone Kossmann        : meta-GGA functionals, TD-DFT gradient, OOMP2, (MP2 Hessian; deprecated post 5.0) 
  Lucas Lang             : DCDCAS                                        
  Marvin Lechner         : AUTO-CI (C++ implementation), FIC-MRCC        
  Spencer Leger          : CASSCF response                               
  Dagmar Lenk            : GEPOL surface, SMD, ORCA-2-JSON               
  Dimitrios Liakos       : Extrapolation schemes; Compound Job, initial MDCI parallelization 
  Dimitrios Manganas     : Further ROCIS development; embedding schemes. LFT, Crystal Embedding 
  Dimitrios Pantazis     : SARC Basis sets                               
  Anastasios Papadopoulos: AUTO-CI, single reference methods and gradients 
  Taras Petrenko         : pre 6.0 DFT Hessian and TD-DFT gradient, (ASA, deprecated), ECA, 1-Electron XAS/XES, NRVS 
  Peter Pinski           : DLPNO-MP2, DLPNO-MP2 Gradient                 
  Christoph Reimann      : Effective Core Potentials                     
  Marius Retegan         : Local ZFS, SOC                                
  Christoph Riplinger    : Optimizer, TS searches, QM/MM, DLPNO-CCSD(T), (RO)-DLPNO pert. Triples 
  Michael Roemelt        : Original ROCIS implementation                 
  Masaaki Saitow         : Open-shell DLPNO-CCSD energy and density      
  Barbara Sandhoefer     : DKH picture change effects                    
  Kantharuban Sivalingam : CASSCF convergence/infrastructure, NEVPT2 and variants, FIC-MRCI 
  Bernardo de Souza      : ESD, SOC TD-DFT                               
  Georgi L. Stoychev     : AutoAux, RI-MP2 NMR, DLPNO-MP2 response, X2C  
  Van Anh Tran           : RI-MP2 g-tensors                              
  Willem Van den Heuvel  : Paramagnetic NMR                              
  Zikuan Wang            : NOTCH, Electric field optimization            
  Frank Wennmohs         : Technical directorship and infrastructure     
  Hang Xu                : AUTO-CI-Response properties                   
                                                                         
[FACCTs GmbH]                                                            
  Markus Bursch, Miquel Garcia-Rates, Christoph Riplinger, Bernardo de Souza, Georgi L. Stoychev 
                                                                 
  APM, Basis sets (HGBS, AHGBS, def-TZVP (Ac-Lr), def2-XVPD (La-Lu)), CI-OPT, improved COSX, DLPNO-Multilevel,           
  DOCKER, DRACO, updates on ESD, GOAT, IRC, LR-CPCM, MBIS, meta-GGA TD-DFT gradient, ML-optimized integration grids, 
  MM, NACMEs, nearIR, NEB, NEB-TS, NL-DFT gradient (VV10), 2- and 3-layer-ONIOM, interface openCOSMO-RS, QMMM,   
  Crystal-QMMM, SF, symmetry and pop. for TD-DFT, r2SCAN hybrids, SOLVATOR                                   
                                                                         
[Other institutions]                                                     
  V. Asgeirsson          : NEB                                           
  Christoph Bannwarth    : sTDA-DFT, sTD-DFT, PBEh-3c, B97-3c, D3        
  Sebastian Ehlert       : rSCAN, r2SCAN, r2SCAN-3c, D4, dhf basis sets  
  Marvin Friede          : D4 for Fr, Ra, Ac-Lr                          
  Lars Goerigk           : TD-DFT with DH, B97 family of functionals     
  Stefan Grimme          : VdW corrections, initial TS optimization, DFT functionals, gCP, sTDA/sTD-DF 
  Waldemar Hujo          : DFT-NL                                        
  H. Jonsson             : NEB                                           
  Holger Kruse           : gCP                                           
  Marcel Mueller         : wB97X-3c, vDZP basis set                      
  Hagen Neugebauer       : wr2SCAN                                       
  Tobias Risthaus        : range-separated hybrid DFT                    
  Lukas Wittmann         : regularized MP2, r2SCAN double-hybrids, wr2SCAN        
                                                                         
We gratefully acknowledge several colleagues who have allowed us to      
interface, adapt or use parts of their codes:                            
  Ed Valeev, F. Pavosevic, A. Kumar             : LibInt (2-el integral package), F12 methods 
  Garnet Chan, S. Sharma, J. Yang, R. Olivares  : DMRG                   
  Ulf Ekstrom                                   : XCFun DFT Library      
  Mihaly Kallay                                 : mrcc  (arbitrary order and MRCC methods)
  Frank Weinhold                                : gennbo (NPA and NBO analysis)           
  Simon Mueller                                 : openCOSMO-RS                            
  Christopher J. Cramer and Donald G. Truhlar   : smd solvation model                     
  S Lehtola, MJT Oliveira, MAL Marques          : LibXC Library                           
  Liviu Ungur et al                             : ANISO software                          


 Your calculation uses the libint2 library for the computation of 2-el integrals
 For citations please refer to: http://libint.valeyev.net

 Your ORCA version has been built with support for libXC version: 6.2.2
 For citations please refer to: https://libxc.gitlab.io

 This ORCA versions uses:
   CBLAS   interface :  Fast vector & matrix operations
   LAPACKE interface :  Fast linear algebra routines
   SCALAPACK package :  Parallel linear algebra routines
   Shared memory     :  Shared parallel matrices
   BLAS/LAPACK       :  OpenBLAS 0.3.27  USE64BITINT DYNAMIC_ARCH NO_AFFINITY SkylakeX SINGLE_THREADED
        Core in use  :  SkylakeX
   Copyright (c) 2011-2014, The OpenBLAS Project


NOTE: MaxCore=5000 MB was set to SCF,MP2,MDCI,CIPSI,MRCI and CIS
      => If you want to overwrite this, your respective input block should be placed after the MaxCore statement


***************************************
The coordinates will be read from file: xtbopt.xyz
***************************************


Your calculation utilizes the atom-pairwise dispersion correction
with the Becke-Johnson damping scheme (D3BJ)


================================================================================

----- Orbital basis set information -----
Your calculation utilizes the basis: def2-SVP
   F. Weigend and R. Ahlrichs, Phys. Chem. Chem. Phys. 7, 3297 (2005).

----- AuxJ basis set information -----
Your calculation utilizes the auxiliary basis: def2/J
   F. Weigend, Phys. Chem. Chem. Phys. 8, 1057 (2006).

================================================================================
                                        WARNINGS
                       Please study these warnings very carefully!
================================================================================



WARNING: Found flag for RIJCOSX approximation but no HF exchange needed!
  ===> : RIJCOSX  will be disabled and Split-RI-J is turned on

WARNING: Geometry Optimization
  ===> : Switching off AutoStart
         For restart on a previous wavefunction, please use MOREAD

================================================================================
                                       INPUT FILE
================================================================================
NAME = input.inp
|  1> ! PBE def2-SVP def2/J TightSCF RIJCOSX Opt D3BJ
|  2> 
|  3> %maxcore 5000
|  4> 
|  5> %pal
|  6> nprocs 32
|  7> end
|  8> 
|  9> * xyzfile 1 1 xtbopt.xyz
| 10> 
| 11>                          ****END OF INPUT****
================================================================================

                       *****************************
                       * Geometry Optimization Run *
                       *****************************

Geometry optimization settings:
Update method            Update   .... BFGS
Choice of coordinates    CoordSys .... (2022) Redundant Internals
Initial Hessian          InHess   .... Almloef's Model
Max. no of cycles        MaxIter  .... 129

Convergence Tolerances:
Energy Change            TolE     ....  5.0000e-06 Eh
Max. Gradient            TolMAXG  ....  3.0000e-04 Eh/bohr
RMS Gradient             TolRMSG  ....  1.0000e-04 Eh/bohr
Max. Displacement        TolMAXD  ....  4.0000e-03 bohr
RMS Displacement         TolRMSD  ....  2.0000e-03 bohr
Strict Convergence                .... False

------------------------------------------------------------------------------
                        ORCA OPTIMIZATION COORDINATE SETUP
------------------------------------------------------------------------------

The optimization will be done in redundant internal coordinates (2022)
Making redundant internal coordinates   ...  (2022 redundants) done
Evaluating the initial hessian          ...  (Almloef) done
Evaluating the coordinates              ...  done
Calculating the B-matrix                .... done
Calculating the G-matrix                .... done
Diagonalizing the G-matrix              .... done
Small eigenvalue found = 2.406e-03
Small eigenvalue found = 3.467e-03
Small eigenvalue found = 8.736e-03
Small eigenvalue found = 1.453e-02
Small eigenvalue found = 1.982e-02
The first mode is                       ....   96
The number of degrees of freedom        ....  123

    -----------------------------------------------------------------
                    Redundant Internal Coordinates


    -----------------------------------------------------------------
         Definition                    Initial Value    Approx d2E/dq
    -----------------------------------------------------------------
      1. B(C   1,C   0)                  1.3278         0.785258   
      2. B(H   2,C   0)                  1.0759         0.379238   
      3. B(H   3,C   0)                  1.0764         0.378512   
      4. B(C   4,C   1)                  1.4576         0.487427   
      5. B(H   5,C   1)                  1.0828         0.369732   
      6. B(C   6,C   4)                  1.3971         0.608721   
      7. B(C   7,C   6)                  1.3787         0.651200   
      8. B(C   8,C   7)                  1.3908         0.623021   
      9. B(C   9,C   4)                  1.3956         0.612020   
     10. B(C  10,C   9)                  1.3815         0.644721   
     11. B(C  10,C   8)                  1.3880         0.629438   
     12. B(H  11,C   9)                  1.0801         0.373483   
     13. B(H  12,C  10)                  1.0819         0.371044   
     14. B(H  13,C   7)                  1.0798         0.373878   
     15. B(H  14,C   6)                  1.0781         0.376213   
     16. B(C  15,C   8)                  1.5054         0.408980   
     17. B(N  16,C  15)                  1.4639         0.426513   
     18. B(H  17,C  15)                  1.0994         0.347875   
     19. B(H  18,C  15)                  1.0927         0.356503   
     20. B(C  19,N  16)                  1.3982         0.542899   
     21. B(C  20,N  16)                  1.4442         0.458582   
     22. B(C  21,C  20)                  1.5464         0.351792   
     23. B(H  22,C  20)                  1.0926         0.356619   
     24. B(H  23,C  20)                  1.0879         0.362895   
     25. B(N  24,C  21)                  1.4873         0.391387   
     26. B(N  24,C  19)                  1.5778         0.280689   
     27. B(H  25,C  21)                  1.0869         0.364166   
     28. B(H  26,C  21)                  1.0898         0.360380   
     29. B(H  27,C  19)                  1.0890         0.361377   
     30. B(H  28,C  19)                  1.0939         0.354952   
     31. B(C  29,N  24)                  1.4802         0.401767   
     32. B(C  30,C  29)                  1.5257         0.379535   
     33. B(H  31,C  29)                  1.0919         0.357577   
     34. B(H  32,C  29)                  1.0927         0.356533   
     35. B(C  33,C  30)                  1.5310         0.372164   
     36. B(H  34,C  30)                  1.0930         0.356190   
     37. B(H  35,C  30)                  1.0913         0.358321   
     38. B(C  36,C  33)                  1.5230         0.383359   
     39. B(H  37,C  33)                  1.0912         0.358506   
     40. B(H  38,C  33)                  1.0912         0.358554   
     41. B(H  39,C  36)                  1.0869         0.364180   
     42. B(H  40,C  36)                  1.0856         0.365933   
     43. B(H  41,C  36)                  1.0870         0.364108   
     44. B(H  42,N  24)                  1.0224         0.413405   
     45. A(C   1,C   0,H   2)          121.1119         0.370690   
     46. A(H   2,C   0,H   3)          115.8519         0.295537   
     47. A(C   1,C   0,H   3)          123.0345         0.370568   
     48. A(C   0,C   1,H   5)          119.0096         0.369076   
     49. A(C   4,C   1,H   5)          114.4806         0.340420   
     50. A(C   0,C   1,C   4)          126.5044         0.433731   
     51. A(C   1,C   4,C   6)          123.1277         0.414424   
     52. A(C   6,C   4,C   9)          117.9368         0.431629   
     53. A(C   1,C   4,C   9)          118.9355         0.414822   
     54. A(C   4,C   6,C   7)          120.9181         0.436475   
     55. A(C   7,C   6,H  14)          119.1785         0.358515   
     56. A(C   4,C   6,H  14)          119.9033         0.354431   
     57. A(C   6,C   7,C   8)          120.6709         0.438306   
     58. A(C   8,C   7,H  13)          119.2052         0.355454   
     59. A(C   6,C   7,H  13)          120.1239         0.358136   
     60. A(C   7,C   8,C  10)          118.9081         0.435629   
     61. A(C  10,C   8,C  15)          121.2481         0.404131   
     62. A(C   7,C   8,C  15)          119.8364         0.403400   
     63. A(C   4,C   9,C  10)          121.1474         0.436114   
     64. A(C   4,C   9,H  11)          119.4146         0.354319   
     65. A(C  10,C   9,H  11)          119.4374         0.357463   
     66. A(C   8,C  10,C   9)          120.4154         0.438326   
     67. A(C   9,C  10,H  12)          119.5037         0.357065   
     68. A(C   8,C  10,H  12)          120.0762         0.355614   
     69. A(H  17,C  15,H  18)          108.5600         0.288813   
     70. A(N  16,C  15,H  18)          107.0920         0.328943   
     71. A(C   8,C  15,H  18)          109.5309         0.328646   
     72. A(N  16,C  15,H  17)          112.4260         0.327616   
     73. A(C   8,C  15,H  17)          109.6722         0.327321   
     74. A(C   8,C  15,N  16)          109.4937         0.375185   
     75. A(C  15,N  16,C  19)          117.8346         0.391622   
     76. A(C  19,N  16,C  20)          104.7172         0.396629   
     77. A(C  15,N  16,C  20)          115.3184         0.380280   
     78. A(H  27,C  19,H  28)          110.1987         0.290344   
     79. A(N  24,C  19,H  28)          105.2678         0.307048   
     80. A(N  16,C  19,H  28)          110.9125         0.342161   
     81. A(N  24,C  19,H  27)          110.1779         0.307935   
     82. A(N  16,C  19,H  27)          113.4379         0.343191   
     83. A(N  16,C  19,N  24)          106.4654         0.364280   
     84. A(H  22,C  20,H  23)          108.8918         0.290749   
     85. A(C  21,C  20,H  23)          112.8969         0.321547   
     86. A(N  16,C  20,H  23)          110.8959         0.333896   
     87. A(C  21,C  20,H  22)          110.7221         0.320631   
     88. A(N  16,C  20,H  22)          109.3473         0.332931   
     89. A(N  16,C  20,C  21)          103.9863         0.370168   
     90. A(H  25,C  21,H  26)          109.3019         0.291389   
     91. A(N  24,C  21,H  26)          109.0930         0.324897   
     92. A(C  20,C  21,H  26)          109.9901         0.321181   
     93. A(N  24,C  21,H  25)          111.5853         0.325456   
     94. A(C  20,C  21,H  25)          112.6917         0.321731   
     95. A(C  20,C  21,N  24)          104.0416         0.360264   
     96. A(C  21,N  24,C  29)          114.7020         0.366243   
     97. A(C  19,N  24,C  29)          114.1100         0.346147   
     98. A(C  19,N  24,C  21)          103.6591         0.344628   
     99. A(C  29,N  24,H  42)          106.7813         0.330935   
    100. A(C  21,N  24,H  42)          109.4032         0.329506   
    101. A(C  19,N  24,H  42)          107.9960         0.312073   
    102. A(H  31,C  29,H  32)          108.3272         0.290065   
    103. A(C  30,C  29,H  32)          109.1451         0.324632   
    104. A(N  24,C  29,H  32)          108.0261         0.325723   
    105. A(C  30,C  29,H  31)          110.6154         0.324788   
    106. A(N  24,C  29,H  31)          108.5425         0.325880   
    107. A(N  24,C  29,C  30)          112.0803         0.366604   
    108. A(C  33,C  30,H  34)          108.8319         0.323537   
    109. A(C  29,C  30,H  34)          109.6294         0.324580   
    110. A(C  29,C  30,C  33)          110.9332         0.364100   
    111. A(H  34,C  30,H  35)          107.9976         0.290116   
    112. A(C  33,C  30,H  35)          108.8126         0.323854   
    113. A(C  29,C  30,H  35)          110.5673         0.324899   
    114. A(H  37,C  33,H  38)          107.8409         0.290441   
    115. A(C  36,C  33,H  38)          109.3889         0.325469   
    116. A(C  30,C  33,H  38)          109.4226         0.323889   
    117. A(C  36,C  33,H  37)          109.4506         0.325462   
    118. A(C  30,C  33,H  37)          109.4355         0.323881   
    119. A(C  30,C  33,C  36)          111.2355         0.364725   
    120. A(H  40,C  36,H  41)          108.2573         0.292083   
    121. A(H  39,C  36,H  41)          108.5074         0.291862   
    122. A(C  33,C  36,H  41)          110.7647         0.326294   
    123. A(H  39,C  36,H  40)          108.2836         0.292092   
    124. A(C  33,C  36,H  40)          110.1366         0.326562   
    125. A(C  33,C  36,H  39)          110.8091         0.326304   
    126. D(C   4,C   1,C   0,H   3)     -0.0676         0.044383   
    127. D(H   5,C   1,C   0,H   2)     -0.4648         0.044383   
    128. D(H   5,C   1,C   0,H   3)    179.0444         0.044383   
    129. D(C   4,C   1,C   0,H   2)   -179.5768         0.044383   
    130. D(C   9,C   4,C   1,C   0)    173.2475         0.016177   
    131. D(C   6,C   4,C   1,H   5)    174.0614         0.016177   
    132. D(C   6,C   4,C   1,C   0)     -6.7919         0.016177   
    133. D(C   9,C   4,C   1,H   5)     -5.8992         0.016177   
    134. D(H  14,C   6,C   4,C   1)     -0.5077         0.025585   
    135. D(C   7,C   6,C   4,C   1)    179.5611         0.025585   
    136. D(H  14,C   6,C   4,C   9)    179.4532         0.025585   
    137. D(C   7,C   6,C   4,C   9)     -0.4779         0.025585   
    138. D(H  13,C   7,C   6,C   4)   -179.9528         0.029534   
    139. D(C   8,C   7,C   6,H  14)   -179.8004         0.029534   
    140. D(H  13,C   7,C   6,H  14)      0.1156         0.029534   
    141. D(C   8,C   7,C   6,C   4)      0.1312         0.029534   
    142. D(C  15,C   8,C   7,H  13)     -0.4994         0.026875   
    143. D(C  15,C   8,C   7,C   6)    179.4174         0.026875   
    144. D(C  10,C   8,C   7,C   6)      0.3961         0.026875   
    145. D(C  10,C   8,C   7,H  13)   -179.5206         0.026875   
    146. D(H  11,C   9,C   4,C   6)   -179.9780         0.025879   
    147. D(H  11,C   9,C   4,C   1)     -0.0154         0.025879   
    148. D(C  10,C   9,C   4,C   6)      0.3048         0.025879   
    149. D(C  10,C   9,C   4,C   1)   -179.7325         0.025879   
    150. D(C   8,C  10,C   9,H  11)   -179.4994         0.028909   
    151. D(H  12,C  10,C   8,C  15)      1.2147         0.027467   
    152. D(H  12,C  10,C   8,C   7)   -179.7783         0.027467   
    153. D(C   8,C  10,C   9,C   4)      0.2176         0.028909   
    154. D(C   9,C  10,C   8,C   7)     -0.5680         0.027467   
    155. D(H  12,C  10,C   9,C   4)    179.4325         0.028909   
    156. D(C   9,C  10,C   8,C  15)   -179.5749         0.027467   
    157. D(H  12,C  10,C   9,H  11)     -0.2846         0.028909   
    158. D(H  18,C  15,C   8,C   7)     57.0157         0.012391   
    159. D(H  17,C  15,C   8,C  10)     -4.9425         0.012391   
    160. D(N  16,C  15,C   8,C  10)    118.8595         0.012391   
    161. D(N  16,C  15,C   8,C   7)    -60.1383         0.012391   
    162. D(H  17,C  15,C   8,C   7)    176.0597         0.012391   
    163. D(C  20,N  16,C  15,H  17)     58.3678         0.015510   
    164. D(C  20,N  16,C  15,C   8)    -63.8012         0.015510   
    165. D(C  19,N  16,C  15,H  18)     52.9373         0.015510   
    166. D(C  19,N  16,C  15,H  17)    -66.2162         0.015510   
    167. D(C  19,N  16,C  15,C   8)    171.6148         0.015510   
    168. D(H  28,C  19,N  16,C  15)   -152.3891         0.025477   
    169. D(H  27,C  19,N  16,C  20)   -157.4366         0.025477   
    170. D(H  27,C  19,N  16,C  15)    -27.7419         0.025477   
    171. D(N  24,C  19,N  16,C  20)    -36.0934         0.025477   
    172. D(N  24,C  19,N  16,C  15)     93.6013         0.025477   
    173. D(H  23,C  20,N  16,C  15)     32.9303         0.017950   
    174. D(H  22,C  20,N  16,C  19)    -75.8068         0.017950   
    175. D(H  22,C  20,N  16,C  15)    153.0211         0.017950   
    176. D(C  21,C  20,N  16,C  19)     42.4826         0.017950   
    177. D(C  21,C  20,N  16,C  15)    -88.6895         0.017950   
    178. D(H  25,C  21,C  20,H  23)     86.9980         0.009963   
    179. D(H  25,C  21,C  20,H  22)    -35.3843         0.009963   
    180. D(H  25,C  21,C  20,N  16)   -152.7234         0.009963   
    181. D(N  24,C  21,C  20,H  23)   -151.9637         0.009963   
    182. D(N  24,C  21,C  20,H  22)     85.6539         0.009963   
    183. D(N  24,C  21,C  20,N  16)    -31.6852         0.009963   
    184. D(C  29,N  24,C  19,H  27)     13.3047         0.007567   
    185. D(C  29,N  24,C  19,N  16)   -110.0966         0.007567   
    186. D(C  21,N  24,C  19,H  28)   -102.4587         0.007567   
    187. D(C  21,N  24,C  19,H  27)    138.7498         0.007567   
    188. D(C  21,N  24,C  19,N  16)     15.3485         0.007567   
    189. D(C  29,N  24,C  21,H  26)     17.7231         0.014009   
    190. D(C  29,N  24,C  21,H  25)   -103.1484         0.014009   
    191. D(C  29,N  24,C  21,C  20)    135.0761         0.014009   
    192. D(C  19,N  24,C  21,H  26)   -107.3420         0.014009   
    193. D(C  19,N  24,C  21,H  25)    131.7865         0.014009   
    194. D(C  19,N  24,C  21,C  20)     10.0110         0.014009   
    195. D(C  29,N  24,C  19,H  28)    132.0962         0.007567   
    196. D(H  31,C  29,N  24,H  42)   -175.8440         0.014750   
    197. D(H  31,C  29,N  24,C  21)    -54.4677         0.014750   
    198. D(H  31,C  29,N  24,C  19)     64.9145         0.014750   
    199. D(C  30,C  29,N  24,H  42)    -53.3759         0.014750   
    200. D(C  30,C  29,N  24,C  21)     68.0003         0.014750   
    201. D(C  30,C  29,N  24,C  19)   -172.6175         0.014750   
    202. D(H  34,C  30,C  29,H  32)    -62.9192         0.011482   
    203. D(H  34,C  30,C  29,H  31)    177.9882         0.011482   
    204. D(H  34,C  30,C  29,N  24)     56.7059         0.011482   
    205. D(C  33,C  30,C  29,H  32)     57.3033         0.011482   
    206. D(C  33,C  30,C  29,H  31)    -61.7892         0.011482   
    207. D(C  33,C  30,C  29,N  24)    176.9284         0.011482   
    208. D(H  37,C  33,C  30,H  35)    -63.0996         0.011065   
    209. D(H  37,C  33,C  30,H  34)    179.4447         0.011065   
    210. D(H  37,C  33,C  30,C  29)     58.7491         0.011065   
    211. D(C  36,C  33,C  30,H  35)     57.9616         0.011065   
    212. D(C  36,C  33,C  30,H  34)    -59.4941         0.011065   
    213. D(C  36,C  33,C  30,C  29)    179.8103         0.011065   
    214. D(H  40,C  36,C  33,H  38)     58.9960         0.011703   
    215. D(H  40,C  36,C  33,H  37)    -58.9565         0.011703   
    216. D(H  40,C  36,C  33,C  30)    179.9912         0.011703   
    217. D(H  39,C  36,C  33,H  38)    178.7857         0.011703   
    218. D(H  39,C  36,C  33,H  37)     60.8332         0.011703   
    219. D(H  39,C  36,C  33,C  30)    -60.2192         0.011703   
    -----------------------------------------------------------------

Number of atoms                         .... 43
Number of degrees of freedom            .... 219


         *************************************************************
         *                GEOMETRY OPTIMIZATION CYCLE   1            *
         *************************************************************
---------------------------------
CARTESIAN COORDINATES (ANGSTROEM)
---------------------------------
  C      1.538921    2.029131   -0.348106
  C      2.789616    1.585739   -0.301671
  H      0.706558    1.347568   -0.333453
  H      1.288437    3.074987   -0.394308
  C      3.998833    2.399576   -0.306068
  H      2.966745    0.519258   -0.240585
  C      3.987302    3.783135   -0.499736
  C      5.158715    4.510125   -0.486263
  C      6.381956    3.880756   -0.281743
  C      5.232370    1.777175   -0.109164
  C      6.406475    2.505046   -0.099197
  H      5.269058    0.708447    0.042552
  H      7.347177    1.996584    0.064957
  H      5.134832    5.579122   -0.636584
  H      3.052810    4.295135   -0.663582
  C      7.650674    4.690962   -0.283746
  N      7.806215    5.351847   -1.580710
  H      8.504098    4.042817   -0.038267
  H      7.582886    5.477734    0.471541
  C      8.832134    6.292299   -1.715372
  C      7.969984    4.466066   -2.709542
  C      9.497529    4.238646   -2.787622
  H      7.606012    4.960462   -3.613405
  H      7.411677    3.543877   -2.563329
  N     10.078207    5.515257   -2.292445
  H      9.836379    4.009234   -3.794596
  H      9.788672    3.430685   -2.116747
  H      9.095761    6.782757   -0.779449
  H      8.580776    7.038269   -2.474982
  C     11.190765    5.356229   -1.329168
  C     12.434927    4.762541   -1.982873
  H     10.850071    4.724330   -0.506424
  H     11.433418    6.342819   -0.926955
  C     13.591595    4.680044   -0.983192
  H     12.740809    5.387824   -2.825515
  H     12.227048    3.761246   -2.363970
  C     14.836107    4.083853   -1.627521
  H     13.293025    4.065484   -0.132365
  H     13.820418    5.679466   -0.609760
  H     14.639473    3.077904   -1.989218
  H     15.644036    4.033818   -0.904104
  H     15.166085    4.693269   -2.464938
  H     10.445894    6.050150   -3.082409

----------------------------
CARTESIAN COORDINATES (A.U.)
----------------------------
  NO LB      ZA    FRAG     MASS         X           Y           Z
   0 C     6.0000    0    12.011    2.908139    3.834502   -0.657825
   1 C     6.0000    0    12.011    5.271610    2.996613   -0.570075
   2 H     1.0000    0     1.008    1.335201    2.546535   -0.630136
   3 H     1.0000    0     1.008    2.434793    5.810884   -0.745134
   4 C     6.0000    0    12.011    7.556700    4.534541   -0.578385
   5 H     1.0000    0     1.008    5.606336    0.981256   -0.454640
   6 C     6.0000    0    12.011    7.534909    7.149088   -0.944364
   7 C     6.0000    0    12.011    9.748558    8.522901   -0.918904
   8 C     6.0000    0    12.011   12.060150    7.333566   -0.532417
   9 C     6.0000    0    12.011    9.887746    3.358374   -0.206289
  10 C     6.0000    0    12.011   12.106483    4.733850   -0.187456
  11 H     1.0000    0     1.008    9.957076    1.338770    0.080412
  12 H     1.0000    0     1.008   13.884152    3.772997    0.122751
  13 H     1.0000    0     1.008    9.703426   10.543014   -1.202969
  14 H     1.0000    0     1.008    5.768975    8.116629   -1.253989
  15 C     6.0000    0    12.011   14.457679    8.864633   -0.536201
  16 N     7.0000    0    14.007   14.751609   10.113525   -2.987108
  17 H     1.0000    0     1.008   16.070417    7.639816   -0.072313
  18 H     1.0000    0     1.008   14.329578   10.351417    0.891084
  19 C     6.0000    0    12.011   16.690314   11.890722   -3.241583
  20 C     6.0000    0    12.011   15.061086    8.439643   -5.120291
  21 C     6.0000    0    12.011   17.947728    8.009880   -5.267842
  22 H     1.0000    0     1.008   14.373280    9.373914   -6.828346
  23 H     1.0000    0     1.008   14.006040    6.696958   -4.843991
  24 N     7.0000    0    14.007   19.045052   10.422325   -4.332093
  25 H     1.0000    0     1.008   18.588062    7.576354   -7.170747
  26 H     1.0000    0     1.008   18.497909    6.483054   -4.000072
  27 H     1.0000    0     1.008   17.188497   12.817553   -1.472944
  28 H     1.0000    0     1.008   16.215316   13.300401   -4.677038
  29 C     6.0000    0    12.011   21.147482   10.121806   -2.511763
  30 C     6.0000    0    12.011   23.498606    8.999898   -3.747088
  31 H     1.0000    0     1.008   20.503663    8.927689   -0.957002
  32 H     1.0000    0     1.008   21.606029   11.986190   -1.751690
  33 C     6.0000    0    12.011   25.684393    8.844001   -1.857963
  34 H     1.0000    0     1.008   24.076641   10.181512   -5.339450
  35 H     1.0000    0     1.008   23.105772    7.107724   -4.467255
  36 C     6.0000    0    12.011   28.036180    7.717363   -3.075568
  37 H     1.0000    0     1.008   25.120176    7.682651   -0.250134
  38 H     1.0000    0     1.008   26.116805   10.732635   -1.152280
  39 H     1.0000    0     1.008   27.664594    5.816396   -3.759077
  40 H     1.0000    0     1.008   29.562944    7.622811   -1.708508
  41 H     1.0000    0     1.008   28.659747    8.868992   -4.658058
  42 H     1.0000    0     1.008   19.739878   11.433127   -5.824909

--------------------------------
INTERNAL COORDINATES (ANGSTROEM)
--------------------------------
 C      0   0   0     0.000000000000     0.00000000     0.00000000
 C      1   0   0     1.327776330268     0.00000000     0.00000000
 H      1   2   0     1.075904626949   121.11187205     0.00000000
 H      1   2   3     1.076425908094   123.03451690   179.50919641
 C      2   1   3     1.457585779180   126.50443452   180.42320441
 H      2   1   3     1.082814527730   119.00964268   359.53519832
 C      5   2   1     1.397095324369   123.12768046   353.20814147
 C      7   5   2     1.378732779314   120.91812539   179.56109723
 C      8   7   5     1.390774800183   120.67085402     0.13123986
 C      5   2   1     1.395623957450   118.93546684   173.24754121
 C     10   5   2     1.381454874580   121.14737335   180.26747684
 H     10   5   2     1.080066649637   119.41459707     0.00000000
 H     11  10   5     1.081850255804   119.50372196   179.43249631
 H      8   7   5     1.079778797982   120.12387481   180.04720003
 H      7   5   2     1.078084266290   119.90330047   359.49225274
 C      9   8   7     1.505351530439   119.83637507   179.41735999
 N     16   9   8     1.463925601784   109.49366904   299.86169143
 H     16   9   8     1.099401866575   109.67218041   176.05967151
 H     16   9   8     1.092732396335   109.53091548    57.01573995
 C     17  16   9     1.398246344564   117.83463732   171.61483689
 C     17  16   9     1.444191363595   115.31836214   296.19884488
 C     21  17  16     1.546354126884   103.98626281   271.31048377
 H     21  17  16     1.092643816610   109.34731852   153.02107454
 H     21  17  16     1.087895367555   110.89585422    32.93031996
 N     22  21  17     1.487320836256   104.04158260   328.31480250
 H     22  21  17     1.086943603563   112.69172325   207.27655348
 H     22  21  17     1.089788600489   109.99012395    85.04402126
 H     20  17  16     1.089036342454   113.43794510   332.25806129
 H     20  17  16     1.093919538737   110.91247378   207.61093925
 C     25  22  21     1.480195307279   114.70199280   135.07613662
 C     30  25  22     1.525691330192   112.08027078    68.00033863
 H     30  25  22     1.091914278022   108.54245001   305.53228895
 H     30  25  22     1.092709871522   108.02613947   188.27840071
 C     31  30  25     1.531029752175   110.93324196   176.92842669
 H     31  30  25     1.092972150523   109.62939429    56.70585585
 H     31  30  25     1.091348079854   110.56729154   297.74564020
 C     34  31  30     1.522962032872   111.23554051   179.81028287
 H     34  31  30     1.091207596021   109.43549504    58.74908375
 H     34  31  30     1.091171343639   109.42258749   300.78568527
 H     37  34  31     1.086932773786   110.80913032   299.78082169
 H     37  34  31     1.085626346666   110.13664638   179.99118618
 H     37  34  31     1.086987127290   110.76472652    60.26274987
 H     25  22  21     1.022422137666   109.40316215   255.00698611

---------------------------
INTERNAL COORDINATES (A.U.)
---------------------------
 C      0   0   0     0.000000000000     0.00000000     0.00000000
 C      1   0   0     2.509133631309     0.00000000     0.00000000
 H      1   2   0     2.033165091152   121.11187205     0.00000000
 H      1   2   3     2.034150169754   123.03451690   179.50919641
 C      2   1   3     2.754437939349   126.50443452   180.42320441
 H      2   1   3     2.046222911242   119.00964268   359.53519832
 C      5   2   1     2.640127546039   123.12768046   353.20814147
 C      7   5   2     2.605427364764   120.91812539   179.56109723
 C      8   7   5     2.628183486305   120.67085402     0.13123986
 C      5   2   1     2.637347065519   118.93546684   173.24754121
 C     10   5   2     2.610571379326   121.14737335   180.26747684
 H     10   5   2     2.041030174196   119.41459707     0.00000000
 H     11  10   5     2.044400701381   119.50372196   179.43249631
 H      8   7   5     2.040486213401   120.12387481   180.04720003
 H      7   5   2     2.037284012578   119.90330047   359.49225274
 C      9   8   7     2.844702127809   119.83637507   179.41735999
 N     16   9   8     2.766418467807   109.49366904   299.86169143
 H     16   9   8     2.077568438949   109.67218041   176.05967151
 H     16   9   8     2.064964966736   109.53091548    57.01573995
 C     17  16   9     2.642302658982   117.83463732   171.61483689
 C     17  16   9     2.729126162168   115.31836214   296.19884488
 C     21  17  16     2.922185805870   103.98626281   271.31048377
 H     21  17  16     2.064797575315   109.34731852   153.02107454
 H     21  17  16     2.055824307041   110.89585422    32.93031996
 N     22  21  17     2.810629053799   104.04158260   328.31480250
 H     22  21  17     2.054025733751   112.69172325   207.27655348
 H     22  21  17     2.059401998793   109.99012395    85.04402126
 H     20  17  16     2.057980437126   113.43794510   332.25806129
 H     20  17  16     2.067208340758   110.91247378   207.61093925
 C     25  22  21     2.797163755472   114.70199280   135.07613662
 C     30  25  22     2.883138778961   112.08027078    68.00033863
 H     30  25  22     2.063418947180   108.54245001   305.53228895
 H     30  25  22     2.064922401010   108.02613947   188.27840071
 C     31  30  25     2.893226934497   110.93324196   176.92842669
 H     31  30  25     2.065418036492   109.62939429    56.70585585
 H     31  30  25     2.062348987705   110.56729154   297.74564020
 C     34  31  30     2.877981154488   111.23554051   179.81028287
 H     34  31  30     2.062083511735   109.43549504    58.74908375
 H     34  31  30     2.062015004661   109.42258749   300.78568527
 H     37  34  31     2.054005268438   110.80913032   299.78082169
 H     37  34  31     2.051536478969   110.13664638   179.99118618
 H     37  34  31     2.054107981676   110.76472652    60.26274987
 H     25  22  21     1.932097833447   109.40316215   255.00698611

---------------------
BASIS SET INFORMATION
---------------------
There are 3 groups of distinct atoms

 Group   1 Type C   : 7s4p1d contracted to 3s2p1d pattern {511/31/1}
 Group   2 Type H   : 4s1p contracted to 2s1p pattern {31/1}
 Group   3 Type N   : 7s4p1d contracted to 3s2p1d pattern {511/31/1}

Atom   0C    basis set group =>   1
Atom   1C    basis set group =>   1
Atom   2H    basis set group =>   2
Atom   3H    basis set group =>   2
Atom   4C    basis set group =>   1
Atom   5H    basis set group =>   2
Atom   6C    basis set group =>   1
Atom   7C    basis set group =>   1
Atom   8C    basis set group =>   1
Atom   9C    basis set group =>   1
Atom  10C    basis set group =>   1
Atom  11H    basis set group =>   2
Atom  12H    basis set group =>   2
Atom  13H    basis set group =>   2
Atom  14H    basis set group =>   2
Atom  15C    basis set group =>   1
Atom  16N    basis set group =>   3
Atom  17H    basis set group =>   2
Atom  18H    basis set group =>   2
Atom  19C    basis set group =>   1
Atom  20C    basis set group =>   1
Atom  21C    basis set group =>   1
Atom  22H    basis set group =>   2
Atom  23H    basis set group =>   2
Atom  24N    basis set group =>   3
Atom  25H    basis set group =>   2
Atom  26H    basis set group =>   2
Atom  27H    basis set group =>   2
Atom  28H    basis set group =>   2
Atom  29C    basis set group =>   1
Atom  30C    basis set group =>   1
Atom  31H    basis set group =>   2
Atom  32H    basis set group =>   2
Atom  33C    basis set group =>   1
Atom  34H    basis set group =>   2
Atom  35H    basis set group =>   2
Atom  36C    basis set group =>   1
Atom  37H    basis set group =>   2
Atom  38H    basis set group =>   2
Atom  39H    basis set group =>   2
Atom  40H    basis set group =>   2
Atom  41H    basis set group =>   2
Atom  42H    basis set group =>   2
---------------------------------
AUXILIARY/J BASIS SET INFORMATION
---------------------------------
There are 3 groups of distinct atoms

 Group   1 Type C   : 12s5p4d2f1g contracted to 6s4p3d1f1g pattern {711111/2111/211/2/1}
 Group   2 Type H   : 5s2p1d contracted to 3s1p1d pattern {311/2/1}
 Group   3 Type N   : 12s5p4d2f1g contracted to 6s4p3d1f1g pattern {711111/2111/211/2/1}

Atom   0C    basis set group =>   1
Atom   1C    basis set group =>   1
Atom   2H    basis set group =>   2
Atom   3H    basis set group =>   2
Atom   4C    basis set group =>   1
Atom   5H    basis set group =>   2
Atom   6C    basis set group =>   1
Atom   7C    basis set group =>   1
Atom   8C    basis set group =>   1
Atom   9C    basis set group =>   1
Atom  10C    basis set group =>   1
Atom  11H    basis set group =>   2
Atom  12H    basis set group =>   2
Atom  13H    basis set group =>   2
Atom  14H    basis set group =>   2
Atom  15C    basis set group =>   1
Atom  16N    basis set group =>   3
Atom  17H    basis set group =>   2
Atom  18H    basis set group =>   2
Atom  19C    basis set group =>   1
Atom  20C    basis set group =>   1
Atom  21C    basis set group =>   1
Atom  22H    basis set group =>   2
Atom  23H    basis set group =>   2
Atom  24N    basis set group =>   3
Atom  25H    basis set group =>   2
Atom  26H    basis set group =>   2
Atom  27H    basis set group =>   2
Atom  28H    basis set group =>   2
Atom  29C    basis set group =>   1
Atom  30C    basis set group =>   1
Atom  31H    basis set group =>   2
Atom  32H    basis set group =>   2
Atom  33C    basis set group =>   1
Atom  34H    basis set group =>   2
Atom  35H    basis set group =>   2
Atom  36C    basis set group =>   1
Atom  37H    basis set group =>   2
Atom  38H    basis set group =>   2
Atom  39H    basis set group =>   2
Atom  40H    basis set group =>   2
Atom  41H    basis set group =>   2
Atom  42H    basis set group =>   2
--------------------------------------------------------------------------
WARNING: There was an error initializing an OpenFabrics device.

  Local host:   ga02
  Local device: mlx5_0
--------------------------------------------------------------------------


           ************************************************************
           *        Program running with 32 parallel MPI-processes    *
           *              working on a common directory               *
           ************************************************************
------------------------------------------------------------------------------
                             ORCA STARTUP CALCULATIONS
                           -- RI-GTO INTEGRALS CHOSEN --
------------------------------------------------------------------------------
------------------------------------------------------------------------------
                   ___                                                        
                  /   \      - P O W E R E D   B Y -                         
                 /     \                                                     
                 |  |  |   _    _      __       _____    __    __             
                 |  |  |  | |  | |    /  \     |  _  \  |  |  /  |          
                  \  \/   | |  | |   /    \    | | | |  |  | /  /          
                 / \  \   | |__| |  /  /\  \   | |_| |  |  |/  /          
                |  |  |   |  __  | /  /__\  \  |    /   |      \           
                |  |  |   | |  | | |   __   |  |    \   |  |\   \          
                \     /   | |  | | |  |  |  |  | |\  \  |  | \   \       
                 \___/    |_|  |_| |__|  |__|  |_| \__\ |__|  \__/        
                                                                              
                      - O R C A' S   B I G   F R I E N D -                    
                                      &                                       
                       - I N T E G R A L  F E E D E R -                       
                                                                              
 v1 FN, 2020, v2 2021, v3 2022-2024                                           
------------------------------------------------------------------------------


----------------------
SHARK INTEGRAL PACKAGE
----------------------

Number of atoms                             ...     43
Number of basis functions                   ...    377
Number of shells                            ...    183
Maximum angular momentum                    ...      2
Integral batch strategy                     ... SHARK/LIBINT Hybrid
RI-J (if used) integral strategy            ... SPLIT-RIJ (Revised 2003 algorithm where possible)
Printlevel                                  ...      1
Contraction scheme used                     ... SEGMENTED contraction
Prescreening option                         ... SCHWARTZ
   Thresh                                   ... 2.500e-11
   Tcut                                     ... 2.500e-12
   Tpresel                                  ... 2.500e-12 
Coulomb Range Separation                    ... NOT USED
Exchange Range Separation                   ... NOT USED
Multipole approximations                    ... NOT USED
Finite Nucleus Model                        ... NOT USED
CABS basis                                  ... NOT available
Auxiliary Coulomb fitting basis             ... AVAILABLE
   # of basis functions in Aux-J            ...   1157
   # of shells in Aux-J                     ...    395
   Maximum angular momentum in Aux-J        ...      4
Auxiliary J/K fitting basis                 ... NOT available
Auxiliary Correlation fitting basis         ... NOT available
Auxiliary 'external' fitting basis          ... NOT available

Checking pre-screening integrals            ... done (  0.0 sec) Dimension = 183
Check shell pair data                       ... done (  0.0 sec)
Shell pair information
Shell pair cut-off parameter TPreSel        ...   2.5e-12
Total number of shell pairs                 ...     16836
Shell pairs after pre-screening             ...     11787
Total number of primitive shell pairs       ...     58620
Primitive shell pairs kept                  ...     27421
          la=0 lb=0:   4019 shell pairs
          la=1 lb=0:   4484 shell pairs
          la=1 lb=1:   1278 shell pairs
          la=2 lb=0:   1226 shell pairs
          la=2 lb=1:    682 shell pairs
          la=2 lb=2:     98 shell pairs

Calculating one electron integrals          ... done (  0.0 sec)
Calculating RI/J V-Matrix + Cholesky decomp.... done (  0.1 sec)
Calculating Nuclear repulsion               ... done (  0.0 sec) ENN=   1285.369836819690 Eh

Diagonalization of the overlap matrix:
Smallest eigenvalue                        ... 2.528e-04
Time for diagonalization                   ...    0.014 sec
Threshold for overlap eigenvalues          ... 1.000e-07
Number of eigenvalues below threshold      ... 0
Time for construction of square roots      ...    0.009 sec
Total time needed                          ...    0.028 sec

-------------------
DFT GRID GENERATION
-------------------

General Integration Accuracy     IntAcc      ... 4.388
Radial Grid Type                 RadialGrid  ... OptM3 with GC (2021)
Angular Grid (max. ang.)         AngularGrid ... 4 (Lebedev-302)
Angular grid pruning method      GridPruning ... 4 (adaptive)
Weight generation scheme         WeightScheme... mBecke (2022)
Basis function cutoff            BFCut       ... 1.0000e-11
Integration weight cutoff        WCut        ... 1.0000e-14
Partially contracted basis set               ... off
Rotationally invariant grid construction     ... off
Angular grids for H and He will be reduced by one unit

Total number of grid points                  ...   186673
Total number of batches                      ...     2937
Average number of points per batch           ...       63
Average number of grid points per atom       ...     4341
Initializing property integral containers    ... done (  0.0 sec)

SHARK setup successfully completed in   1.5 seconds

Maximum memory used throughout the entire STARTUP-calculation: 48.6 MB
[ga02:3514957] 31 more processes have sent help message help-mpi-btl-openib.txt / error in device init
[ga02:3514957] Set MCA parameter "orte_base_help_aggregate" to 0 to see all help / error messages
--------------------------------------------------------------------------
WARNING: There was an error initializing an OpenFabrics device.

  Local host:   ga02
  Local device: mlx5_0
--------------------------------------------------------------------------


           ************************************************************
           *        Program running with 32 parallel MPI-processes    *
           *              working on a common directory               *
           ************************************************************
-------------------------------------------------------------------------------
                                 ORCA GUESS
                   Start orbitals & Density for SCF / CASSCF
-------------------------------------------------------------------------------

------------
SCF SETTINGS
------------
Hamiltonian:
 Density Functional     Method          .... DFT(GTOs)
 Exchange Functional    Exchange        .... PBE
   PBE kappa parameter   XKappa         ....  0.804000
   PBE mue parameter    XMuePBE         ....  0.219520
 Correlation Functional Correlation     .... PBE
   PBE beta parameter  CBetaPBE         ....  0.066725
 LDA part of GGA corr.  LDAOpt          .... PW91-LDA
 Gradients option       PostSCFGGA      .... off
   NL short-range parameter             ....  6.400000
 RI-approximation to the Coulomb term is turned on
   Number of AuxJ basis functions       .... 1157


General Settings:
 Integral files         IntName         .... input
 Hartree-Fock type      HFTyp           .... RHF
 Total Charge           Charge          ....    1
 Multiplicity           Mult            ....    1
 Number of Electrons    NEL             ....  134
 Basis Dimension        Dim             ....  377
 Nuclear Repulsion      ENuc            ....   1285.3698368197 Eh

Convergence Acceleration:
 AO-DIIS                CNVDIIS         .... on
   Start iteration      DIISMaxIt       ....    12
   Startup error        DIISStart       ....  0.200000
   # of expansion vecs  DIISMaxEq       ....     5
   Bias factor          DIISBfac        ....   1.050
   Max. coefficient     DIISMaxC        ....  10.000
 MO-DIIS                CNVKDIIS        .... off
 Trust-Rad. Augm. Hess. CNVTRAH         .... auto
   Auto Start mean grad. ratio tolernc. ....  1.125000
   Auto Start start iteration           ....    50
   Auto Start num. interpolation iter.  ....    10
   Max. Number of Micro iterations      ....    24
   Max. Number of Macro iterations      .... Maxiter - #DIIS iter
   Number of Davidson start vectors     ....     2
   Converg. threshold    (grad. norm)   ....   1.000e-05
   Grad. Scal. Fac. for Micro threshold ....   0.100
   Minimum threshold for Micro iter.    ....   1.000e-02
   NR start threshold (gradient norm)   ....   1.000e-04
   Initial trust radius                 ....   0.400
   Minimum AH scaling param. (alpha)    ....   1.000
   Maximum AH scaling param. (alpha)    .... 1000.000
   Quad. conv. algorithm                .... NR
   White noise on init. David. guess    .... on
   Maximum white noise                  ....   0.010
   Pseudo random numbers                .... off
   Inactive MOs                         .... canonical
   Orbital update algorithm             .... Taylor
   Preconditioner                       .... Diag
   Full preconditioner red. dimension   ....   250
 SOSCF                  CNVSOSCF        .... on
   Start iteration      SOSCFMaxIt      ....   150
   Startup grad/error   SOSCFStart      ....  0.003300
   Hessian update       SOSCFHessUp     .... L-BFGS
 Level Shifting         CNVShift        .... on
   Level shift para.    LevelShift      ....    0.2500
   Turn off err/grad.   ShiftErr        ....    0.0010
 Zerner damping         CNVZerner       .... off
 Static damping         CNVDamp         .... on
   Fraction old density DampFac         ....    0.7000
   Max. Damping (<1)    DampMax         ....    0.9800
   Min. Damping (>=0)   DampMin         ....    0.0000
   Turn off err/grad.   DampErr         ....    0.1000

SCF Procedure:
 Maximum # iterations   MaxIter         ....   125
 SCF integral mode      SCFMode         .... Direct
   Integral package                     .... SHARK and LIBINT hybrid scheme
 Reset frequency        DirectResetFreq ....    20
 Integral Threshold     Thresh          ....  2.500e-11 Eh
 Primitive CutOff       TCut            ....  2.500e-12 Eh

Convergence Tolerance:
 Convergence Check Mode ConvCheckMode   .... Total+1el-Energy
 Convergence forced     ConvForced      .... 0
 Energy Change          TolE            ....  1.000e-08 Eh
 1-El. energy change                    ....  1.000e-05 Eh
 Orbital Gradient       TolG            ....  1.000e-05
 Orbital Rotation angle TolX            ....  1.000e-05
 DIIS Error             TolErr          ....  5.000e-07

------------------------------
INITIAL GUESS: MODEL POTENTIAL
------------------------------
Loading Hartree-Fock densities                     ... done
Calculating cut-offs                               ... done
Initializing the effective Hamiltonian             ... done
Setting up the integral package (SHARK)            ... done
Starting the Coulomb interaction                   ... done (   0.0 sec)
Making the grid                                    ... done (   0.2 sec)
Mapping shells                                     ... done
Starting the XC term evaluation                    ... done (   0.0 sec)
  promolecular density results
     # of electrons  =    134.999620531
     EX              =   -102.417868337
     EC              =     -4.491642597
     EX+EC           =   -106.909510934
Transforming the Hamiltonian                       ... done (   0.0 sec)
Diagonalizing the Hamiltonian                      ... done (   0.0 sec)
Back transforming the eigenvectors                 ... done (   0.0 sec)
Now organizing SCF variables                       ... done
                      ------------------
                      INITIAL GUESS DONE (   0.4 sec)
                      ------------------
             **** ENERGY FILE WAS UPDATED (input.en.tmp) ****
Finished Guess after   1.2 sec
Maximum memory used throughout the entire GUESS-calculation: 28.6 MB
[ga02:3515104] 31 more processes have sent help message help-mpi-btl-openib.txt / error in device init
[ga02:3515104] Set MCA parameter "orte_base_help_aggregate" to 0 to see all help / error messages
--------------------------------------------------------------------------
WARNING: There was an error initializing an OpenFabrics device.

  Local host:   ga02
  Local device: mlx5_0
--------------------------------------------------------------------------


           ************************************************************
           *        Program running with 32 parallel MPI-processes    *
           *              working on a common directory               *
           ************************************************************

-------------------------------------------------------------------------------------------
                                      ORCA LEAN-SCF
                              memory conserving SCF solver
-------------------------------------------------------------------------------------------

----------------------------------------D-I-I-S--------------------------------------------
Iteration    Energy (Eh)           Delta-E    RMSDP     MaxDP     DIISErr   Damp  Time(sec)
-------------------------------------------------------------------------------------------
               ***  Starting incremental Fock matrix formation  ***
    1    -732.1659148595570059     0.00e+00  1.96e-03  7.50e-02  1.52e-01  0.700   0.4
Warning: op=0 Small HOMO/LUMO gap (   0.068) - skipping pre-diagonalization
         Will do a full diagonalization
    2    -732.3225900434606501    -1.57e-01  1.50e-03  5.10e-02  7.12e-02  0.700   0.4
                               ***Turning on AO-DIIS***
    3    -732.3827761259576619    -6.02e-02  6.17e-04  2.22e-02  2.21e-02  0.700   0.4
    4    -732.4173929620508261    -3.46e-02  9.99e-04  3.22e-02  1.04e-02  0.000   0.4
    5    -732.4936021611088108    -7.62e-02  2.54e-04  9.89e-03  5.02e-03  0.000   0.4
                              *** Initializing SOSCF ***
---------------------------------------S-O-S-C-F--------------------------------------
Iteration    Energy (Eh)           Delta-E    RMSDP     MaxDP     MaxGrad    Time(sec)
--------------------------------------------------------------------------------------
    6    -732.4942299966701285    -6.28e-04  9.56e-05  3.95e-03  1.43e-03     0.4
               *** Restarting incremental Fock matrix formation ***
    7    -732.4942878805379678    -5.79e-05  8.56e-05  3.10e-03  4.51e-04     0.4
    8    -732.4942773913453493     1.05e-05  3.48e-05  1.51e-03  7.26e-04     0.3
    9    -732.4942989069090800    -2.15e-05  3.10e-05  1.33e-03  2.91e-04     0.3
   10    -732.4942971346608829     1.77e-06  1.43e-05  5.27e-04  3.46e-04     0.3
   11    -732.4943004815072527    -3.35e-06  1.14e-05  3.11e-04  3.99e-05     0.3
   12    -732.4943003896160008     9.19e-08  5.18e-06  1.39e-04  4.38e-05     0.3
[ga02:3515246] 31 more processes have sent help message help-mpi-btl-openib.txt / error in device init
[ga02:3515246] Set MCA parameter "orte_base_help_aggregate" to 0 to see all help / error messages
   13    -732.4943007334227332    -3.44e-07  2.94e-06  9.22e-05  9.51e-06     0.3
   14    -732.4943007241543000     9.27e-09  1.48e-06  5.25e-05  1.99e-05     0.3
                 **** Energy Check signals convergence ****

               *****************************************************
               *                     SUCCESS                       *
               *           SCF CONVERGED AFTER  14 CYCLES          *
               *****************************************************

             **** ENERGY FILE WAS UPDATED (input.en.tmp) ****

----------------
TOTAL SCF ENERGY
----------------

Total Energy       :       -732.49430072415430 Eh          -19932.18326 eV

Components:
Nuclear Repulsion  :       1285.36983681968968 Eh           34976.69144 eV
Electronic Energy  :      -2017.86413754384398 Eh          -54908.87470 eV
One Electron Energy:      -3523.27183997365364 Eh          -95873.10086 eV
Two Electron Energy:       1505.40770242980966 Eh           40964.22616 eV

Virial components:
Potential Energy   :      -1457.66727464714518 Eh          -39665.14308 eV
Kinetic Energy     :        725.17297392299088 Eh           19732.95982 eV
Virial Ratio       :          2.01009597304979

DFT components:
N(Alpha)           :       66.999935474925 electrons
N(Beta)            :       66.999935474925 electrons
N(Total)           :      133.999870949849 electrons
E(X)               :     -104.319798287029 Eh       
E(C)               :       -4.461535830636 Eh       
E(XC)              :     -108.781334117665 Eh       

---------------
SCF CONVERGENCE
---------------

  Last Energy change         ...   -9.2684e-09  Tolerance :   1.0000e-08
  Last MAX-Density change    ...    5.2521e-05  Tolerance :   1.0000e-07
  Last RMS-Density change    ...    1.4792e-06  Tolerance :   5.0000e-09
  Last DIIS Error            ...    1.4284e-03  Tolerance :   5.0000e-07
  Last Orbital Gradient      ...    1.9935e-05  Tolerance :   1.0000e-05
  Last Orbital Rotation      ...    4.5984e-05  Tolerance :   1.0000e-05


----------------
ORBITAL ENERGIES
----------------

  NO   OCC          E(Eh)            E(eV) 
   0   2.0000     -14.269659      -388.2972 
   1   2.0000     -14.153450      -385.1350 
   2   2.0000     -10.124562      -275.5034 
   3   2.0000     -10.102625      -274.9064 
   4   2.0000     -10.101315      -274.8707 
   5   2.0000     -10.075099      -274.1574 
   6   2.0000     -10.056886      -273.6618 
   7   2.0000     -10.042639      -273.2741 
   8   2.0000     -10.016777      -272.5704 
   9   2.0000     -10.005280      -272.2575 
  10   2.0000      -9.996123      -272.0083 
  11   2.0000      -9.994272      -271.9580 
  12   2.0000      -9.992585      -271.9121 
  13   2.0000      -9.988974      -271.8138 
  14   2.0000      -9.987748      -271.7804 
  15   2.0000      -9.987685      -271.7787 
  16   2.0000      -9.976904      -271.4854 
  17   2.0000      -9.968736      -271.2631 
  18   2.0000      -1.096799       -29.8454 
  19   2.0000      -1.005364       -27.3574 
  20   2.0000      -0.883358       -24.0374 
  21   2.0000      -0.870615       -23.6906 
  22   2.0000      -0.850469       -23.1424 
  23   2.0000      -0.826902       -22.5012 
  24   2.0000      -0.798241       -21.7212 
  25   2.0000      -0.778427       -21.1821 
  26   2.0000      -0.767362       -20.8810 
  27   2.0000      -0.746137       -20.3034 
  28   2.0000      -0.734252       -19.9800 
  29   2.0000      -0.725566       -19.7436 
  30   2.0000      -0.693806       -18.8794 
  31   2.0000      -0.668499       -18.1908 
  32   2.0000      -0.649676       -17.6786 
  33   2.0000      -0.646151       -17.5827 
  34   2.0000      -0.635112       -17.2823 
  35   2.0000      -0.620521       -16.8852 
  36   2.0000      -0.599881       -16.3236 
  37   2.0000      -0.589642       -16.0450 
  38   2.0000      -0.585566       -15.9341 
  39   2.0000      -0.571001       -15.5377 
  40   2.0000      -0.560002       -15.2384 
  41   2.0000      -0.551941       -15.0191 
  42   2.0000      -0.534949       -14.5567 
  43   2.0000      -0.526815       -14.3354 
  44   2.0000      -0.514128       -13.9901 
  45   2.0000      -0.507737       -13.8162 
  46   2.0000      -0.503218       -13.6932 
  47   2.0000      -0.494439       -13.4544 
  48   2.0000      -0.492785       -13.4094 
  49   2.0000      -0.484515       -13.1843 
  50   2.0000      -0.477488       -12.9931 
  51   2.0000      -0.476691       -12.9714 
  52   2.0000      -0.468517       -12.7490 
  53   2.0000      -0.464485       -12.6393 
  54   2.0000      -0.454466       -12.3666 
  55   2.0000      -0.447441       -12.1755 
  56   2.0000      -0.431926       -11.7533 
  57   2.0000      -0.427621       -11.6362 
  58   2.0000      -0.416256       -11.3269 
  59   2.0000      -0.414273       -11.2729 
  60   2.0000      -0.409259       -11.1365 
  61   2.0000      -0.393880       -10.7180 
  62   2.0000      -0.382201       -10.4002 
  63   2.0000      -0.361829        -9.8459 
  64   2.0000      -0.344880        -9.3847 
  65   2.0000      -0.326313        -8.8794 
  66   2.0000      -0.291620        -7.9354 
  67   0.0000      -0.157902        -4.2967 
  68   0.0000      -0.152403        -4.1471 
  69   0.0000      -0.135506        -3.6873 
  70   0.0000      -0.119455        -3.2505 
  71   0.0000      -0.110608        -3.0098 
  72   0.0000      -0.095265        -2.5923 
  73   0.0000      -0.088239        -2.4011 
  74   0.0000      -0.077692        -2.1141 
  75   0.0000      -0.072756        -1.9798 
  76   0.0000      -0.069703        -1.8967 
  77   0.0000      -0.055307        -1.5050 
*Only the first 10 virtual orbitals were printed.

                    ********************************
                    * MULLIKEN POPULATION ANALYSIS *
                    ********************************

-----------------------
MULLIKEN ATOMIC CHARGES
-----------------------
   0 C :   -0.006043
   1 C :   -0.004912
   2 H :    0.045981
   3 H :    0.028783
   4 C :    0.093701
   5 H :   -0.003467
   6 C :   -0.004017
   7 C :    0.027267
   8 C :   -0.096392
   9 C :   -0.016233
  10 C :    0.006748
  11 H :   -0.012415
  12 H :   -0.030134
  13 H :   -0.026398
  14 H :   -0.015789
  15 C :    0.191443
  16 N :   -0.326989
  17 H :   -0.001688
  18 H :    0.046035
  19 C :    0.232864
  20 C :    0.090437
  21 C :    0.043978
  22 H :    0.056820
  23 H :    0.084787
  24 N :   -0.204747
  25 H :    0.085630
  26 H :    0.083304
  27 H :    0.069101
  28 H :    0.067256
  29 C :    0.038105
  30 C :   -0.066340
  31 H :    0.072189
  32 H :    0.068272
  33 C :   -0.076379
  34 H :    0.036376
  35 H :    0.045203
  36 C :   -0.001639
  37 H :    0.037565
  38 H :    0.038031
  39 H :    0.034298
  40 H :    0.051562
  41 H :    0.035401
  42 H :    0.182444
Sum of atomic charges:    1.0000000

--------------------------------
MULLIKEN REDUCED ORBITAL CHARGES
--------------------------------
  0 C s       :     3.110969  s :     3.110969
      pz      :     0.960617  p :     2.870887
      px      :     0.984218
      py      :     0.926051
      dz2     :     0.001331  d :     0.024188
      dxz     :     0.004432
      dyz     :     0.000538
      dx2y2   :     0.008519
      dxy     :     0.009367

  1 C s       :     3.164635  s :     3.164635
      pz      :     0.988254  p :     2.807185
      px      :     0.924168
      py      :     0.894763
      dz2     :     0.002149  d :     0.033092
      dxz     :     0.006870
      dyz     :     0.001610
      dx2y2   :     0.011992
      dxy     :     0.010471

  2 H s       :     0.929390  s :     0.929390
      pz      :     0.005149  p :     0.024628
      px      :     0.010643
      py      :     0.008837

  3 H s       :     0.946403  s :     0.946403
      pz      :     0.005135  p :     0.024813
      px      :     0.005599
      py      :     0.014080

  4 C s       :     3.024225  s :     3.024225
      pz      :     0.954563  p :     2.840397
      px      :     0.933943
      py      :     0.951891
      dz2     :     0.002978  d :     0.041678
      dxz     :     0.006801
      dyz     :     0.006075
      dx2y2   :     0.012580
      dxy     :     0.013244

  5 H s       :     0.979920  s :     0.979920
      pz      :     0.004951  p :     0.023546
      px      :     0.004244
      py      :     0.014352

  6 C s       :     3.227303  s :     3.227303
      pz      :     0.963311  p :     2.744168
      px      :     0.821069
      py      :     0.959789
      dz2     :     0.002259  d :     0.032546
      dxz     :     0.003620
      dyz     :     0.005106
      dx2y2   :     0.010380
      dxy     :     0.011182

  7 C s       :     3.228452  s :     3.228452
      pz      :     0.975971  p :     2.711040
      px      :     0.942566
      py      :     0.792504
      dz2     :     0.002320  d :     0.033240
      dxz     :     0.006880
      dyz     :     0.002475
      dx2y2   :     0.012189
      dxy     :     0.009378

  8 C s       :     3.063276  s :     3.063276
      pz      :     1.031959  p :     2.992745
      px      :     0.983767
      py      :     0.977018
      dz2     :     0.003142  d :     0.040371
      dxz     :     0.004848
      dyz     :     0.006566
      dx2y2   :     0.012510
      dxy     :     0.013305

  9 C s       :     3.239618  s :     3.239618
      pz      :     0.974783  p :     2.744208
      px      :     0.957127
      py      :     0.812298
      dz2     :     0.002312  d :     0.032408
      dxz     :     0.006246
      dyz     :     0.002404
      dx2y2   :     0.012002
      dxy     :     0.009444

 10 C s       :     3.212143  s :     3.212143
      pz      :     0.991982  p :     2.747618
      px      :     0.824009
      py      :     0.931627
      dz2     :     0.002332  d :     0.033491
      dxz     :     0.003479
      dyz     :     0.006004
      dx2y2   :     0.010758
      dxy     :     0.010919

 11 H s       :     0.988783  s :     0.988783
      pz      :     0.005265  p :     0.023632
      px      :     0.003832
      py      :     0.014535

 12 H s       :     1.006633  s :     1.006633
      pz      :     0.005639  p :     0.023501
      px      :     0.011570
      py      :     0.006292

 13 H s       :     1.002761  s :     1.002761
      pz      :     0.005345  p :     0.023636
      px      :     0.003943
      py      :     0.014348

 14 H s       :     0.992016  s :     0.992016
      pz      :     0.005189  p :     0.023773
      px      :     0.012286
      py      :     0.006298

 15 C s       :     2.906678  s :     2.906678
      pz      :     0.860662  p :     2.855471
      px      :     1.016293
      py      :     0.978515
      dz2     :     0.009288  d :     0.046408
      dxz     :     0.008637
      dyz     :     0.013486
      dx2y2   :     0.005661
      dxy     :     0.009337

 16 N s       :     3.496716  s :     3.496716
      pz      :     1.111876  p :     3.799766
      px      :     1.476142
      py      :     1.211749
      dz2     :     0.007015  d :     0.030507
      dxz     :     0.004803
      dyz     :     0.008094
      dx2y2   :     0.004469
      dxy     :     0.006125

 17 H s       :     0.980159  s :     0.980159
      pz      :     0.004363  p :     0.021529
      px      :     0.009072
      py      :     0.008094

 18 H s       :     0.931845  s :     0.931845
      pz      :     0.008554  p :     0.022121
      px      :     0.004819
      py      :     0.008748

 19 C s       :     2.968002  s :     2.968002
      pz      :     1.025463  p :     2.742426
      px      :     0.778269
      py      :     0.938695
      dz2     :     0.006650  d :     0.056708
      dxz     :     0.008318
      dyz     :     0.011612
      dx2y2   :     0.015791
      dxy     :     0.014337

 20 C s       :     3.011338  s :     3.011338
      pz      :     0.919042  p :     2.852516
      px      :     0.946156
      py      :     0.987317
      dz2     :     0.010742  d :     0.045709
      dxz     :     0.008406
      dyz     :     0.010995
      dx2y2   :     0.007516
      dxy     :     0.008050

 21 C s       :     3.015624  s :     3.015624
      pz      :     1.041788  p :     2.900825
      px      :     1.015598
      py      :     0.843439
      dz2     :     0.006026  d :     0.039573
      dxz     :     0.006376
      dyz     :     0.008203
      dx2y2   :     0.008940
      dxy     :     0.010029

 22 H s       :     0.921282  s :     0.921282
      pz      :     0.010305  p :     0.021899
      px      :     0.005773
      py      :     0.005821

 23 H s       :     0.891731  s :     0.891731
      pz      :     0.004175  p :     0.023482
      px      :     0.007573
      py      :     0.011735

 24 N s       :     3.440773  s :     3.440773
      pz      :     1.224906  p :     3.735713
      px      :     1.272720
      py      :     1.238087
      dz2     :     0.004613  d :     0.028261
      dxz     :     0.005859
      dyz     :     0.006249
      dx2y2   :     0.005131
      dxy     :     0.006408

 25 H s       :     0.891624  s :     0.891624
      pz      :     0.013662  p :     0.022746
      px      :     0.005055
      py      :     0.004029

 26 H s       :     0.894249  s :     0.894249
      pz      :     0.008181  p :     0.022447
      px      :     0.004777
      py      :     0.009488

 27 H s       :     0.909114  s :     0.909114
      pz      :     0.012491  p :     0.021786
      px      :     0.002981
      py      :     0.006314

 28 H s       :     0.911264  s :     0.911264
      pz      :     0.008579  p :     0.021479
      px      :     0.003892
      py      :     0.009009

 29 C s       :     3.016213  s :     3.016213
      pz      :     0.953642  p :     2.902619
      px      :     0.868772
      py      :     1.080205
      dz2     :     0.005496  d :     0.043064
      dxz     :     0.013979
      dyz     :     0.007702
      dx2y2   :     0.009772
      dxy     :     0.006114

 30 C s       :     3.027770  s :     3.027770
      pz      :     1.042261  p :     3.005697
      px      :     0.944760
      py      :     1.018677
      dz2     :     0.005020  d :     0.032872
      dxz     :     0.006931
      dyz     :     0.008063
      dx2y2   :     0.006990
      dxy     :     0.005868

 31 H s       :     0.905739  s :     0.905739
      pz      :     0.009822  p :     0.022072
      px      :     0.003976
      py      :     0.008274

 32 H s       :     0.909744  s :     0.909744
      pz      :     0.005410  p :     0.021983
      px      :     0.004202
      py      :     0.012372

 33 C s       :     3.050148  s :     3.050148
      pz      :     0.999791  p :     2.991947
      px      :     0.964770
      py      :     1.027386
      dz2     :     0.004814  d :     0.034284
      dxz     :     0.008779
      dyz     :     0.007442
      dx2y2   :     0.008010
      dxy     :     0.005240

 34 H s       :     0.940854  s :     0.940854
      pz      :     0.009744  p :     0.022770
      px      :     0.005276
      py      :     0.007751

 35 H s       :     0.932104  s :     0.932104
      pz      :     0.005699  p :     0.022693
      px      :     0.004501
      py      :     0.012492

 36 C s       :     2.988502  s :     2.988502
      pz      :     1.007635  p :     2.987685
      px      :     0.972334
      py      :     1.007716
      dz2     :     0.002830  d :     0.025451
      dxz     :     0.007304
      dyz     :     0.005514
      dx2y2   :     0.006395
      dxy     :     0.003408

 37 H s       :     0.939671  s :     0.939671
      pz      :     0.009969  p :     0.022764
      px      :     0.004764
      py      :     0.008031

 38 H s       :     0.939224  s :     0.939224
      pz      :     0.005793  p :     0.022745
      px      :     0.004985
      py      :     0.011968

 39 H s       :     0.941540  s :     0.941540
      pz      :     0.006397  p :     0.024161
      px      :     0.005022
      py      :     0.012742

 40 H s       :     0.924423  s :     0.924423
      pz      :     0.008878  p :     0.024015
      px      :     0.009794
      py      :     0.005344

 41 H s       :     0.940429  s :     0.940429
      pz      :     0.010293  p :     0.024170
      px      :     0.006038
      py      :     0.007839

 42 H s       :     0.776970  s :     0.776970
      pz      :     0.018541  p :     0.040586
      px      :     0.009674
      py      :     0.012371



                     *******************************
                     * LOEWDIN POPULATION ANALYSIS *
                     *******************************

----------------------
LOEWDIN ATOMIC CHARGES
----------------------
   0 C :   -0.015475
   1 C :   -0.027086
   2 H :    0.036430
   3 H :    0.025004
   4 C :   -0.015692
   5 H :    0.034283
   6 C :    0.001258
   7 C :   -0.014697
   8 C :   -0.062368
   9 C :   -0.009872
  10 C :   -0.033166
  11 H :    0.034542
  12 H :    0.024887
  13 H :    0.029046
  14 H :    0.033909
  15 C :    0.032844
  16 N :   -0.067162
  17 H :    0.006919
  18 H :    0.042078
  19 C :    0.108042
  20 C :    0.032626
  21 C :    0.033062
  22 H :    0.039551
  23 H :    0.053428
  24 N :    0.167326
  25 H :    0.050651
  26 H :    0.045213
  27 H :    0.043176
  28 H :    0.039529
  29 C :    0.036386
  30 C :   -0.049627
  31 H :    0.042306
  32 H :    0.043758
  33 C :   -0.036650
  34 H :    0.032699
  35 H :    0.033332
  36 C :   -0.055439
  37 H :    0.032098
  38 H :    0.032212
  39 H :    0.031469
  40 H :    0.042093
  41 H :    0.032057
  42 H :    0.115021

-------------------------------
LOEWDIN REDUCED ORBITAL CHARGES
-------------------------------
  0 C s       :     2.877352  s :     2.877352
      pz      :     0.942091  p :     3.070229
      px      :     1.072638
      py      :     1.055501
      dz2     :     0.004544  d :     0.067893
      dxz     :     0.009046
      dyz     :     0.001166
      dx2y2   :     0.025392
      dxy     :     0.027743

  1 C s       :     2.861889  s :     2.861889
      pz      :     0.965542  p :     3.073758
      px      :     1.066593
      py      :     1.041623
      dz2     :     0.005956  d :     0.091439
      dxz     :     0.014727
      dyz     :     0.003030
      dx2y2   :     0.035632
      dxy     :     0.032094

  2 H s       :     0.892044  s :     0.892044
      pz      :     0.015422  p :     0.071526
      px      :     0.030262
      py      :     0.025842

  3 H s       :     0.903226  s :     0.903226
      pz      :     0.015181  p :     0.071770
      px      :     0.014176
      py      :     0.042412

  4 C s       :     2.845779  s :     2.845779
[...]

Time for energy+gradient        :     11.728 s
Time for complete geometry iter :     12.920 s

         *************************************************************
         *                GEOMETRY OPTIMIZATION CYCLE   8            *
         *************************************************************
---------------------------------
CARTESIAN COORDINATES (ANGSTROEM)
---------------------------------
  C      1.555778    1.866995   -0.373559
  C      2.838229    1.484071   -0.201037
  H      0.737668    1.133976   -0.320517
  H      1.268416    2.912104   -0.569020
  C      4.030769    2.343543   -0.239553
  H      3.043313    0.417562   -0.004629
  C      3.973347    3.737569   -0.490982
  C      5.130245    4.516015   -0.512488
  C      6.396081    3.932954   -0.285205
  C      5.302668    1.770217   -0.016269
  C      6.465836    2.550059   -0.041840
  H      5.375529    0.689968    0.181961
  H      7.443506    2.075129    0.141029
  H      5.057777    5.596275   -0.712174
  H      3.001046    4.219555   -0.668072
  C      7.643850    4.778735   -0.314749
  N      7.792878    5.479806   -1.612143
  H      8.525323    4.135374   -0.073219
  H      7.599956    5.570041    0.462776
  C      8.819787    6.422206   -1.730105
  C      7.923711    4.634107   -2.791375
  C      9.443133    4.342558   -2.876708
  H      7.577734    5.181318   -3.693453
  H      7.317676    3.714153   -2.692501
  N     10.089281    5.599692   -2.332486
  H      9.815861    4.137038   -3.896223
  H      9.733328    3.503622   -2.216944
  H      9.123231    6.897472   -0.780207
  H      8.626309    7.182752   -2.514321
  C     11.205952    5.381000   -1.351112
  C     12.434190    4.730566   -1.974022
  H     10.786348    4.769860   -0.526782
  H     11.459249    6.376572   -0.933115
  C     13.569456    4.560070   -0.953779
  H     12.790975    5.353462   -2.825448
  H     12.169804    3.738218   -2.399374
  C     14.814689    3.913983   -1.559706
  H     13.201008    3.948376   -0.101436
  H     13.827826    5.553546   -0.526542
  H     14.593533    2.904323   -1.961937
  H     15.613785    3.803061   -0.801862
  H     15.224589    4.524437   -2.389915
  H     10.470811    6.149329   -3.120985

----------------------------
CARTESIAN COORDINATES (A.U.)
----------------------------
  NO LB      ZA    FRAG     MASS         X           Y           Z
   0 C     6.0000    0    12.011    2.939995    3.528108   -0.705925
   1 C     6.0000    0    12.011    5.363476    2.804487   -0.379905
   2 H     1.0000    0     1.008    1.393991    2.142903   -0.605690
   3 H     1.0000    0     1.008    2.396959    5.503079   -1.075292
   4 C     6.0000    0    12.011    7.617049    4.428654   -0.452690
   5 H     1.0000    0     1.008    5.751027    0.789078   -0.008748
   6 C     6.0000    0    12.011    7.508538    7.062983   -0.927822
   7 C     6.0000    0    12.011    9.694757    8.534031   -0.968462
   8 C     6.0000    0    12.011   12.086841    7.432207   -0.538960
   9 C     6.0000    0    12.011   10.020590    3.345226   -0.030745
  10 C     6.0000    0    12.011   12.218660    4.818913   -0.079066
  11 H     1.0000    0     1.008   10.158278    1.303851    0.343857
  12 H     1.0000    0     1.008   14.066188    3.921426    0.266507
  13 H     1.0000    0     1.008    9.557814   10.575427   -1.345814
  14 H     1.0000    0     1.008    5.671154    7.973804   -1.262473
  15 C     6.0000    0    12.011   14.444784    9.030500   -0.594790
  16 N     7.0000    0    14.007   14.726404   10.355333   -3.046509
  17 H     1.0000    0     1.008   16.110526    7.814724   -0.138364
  18 H     1.0000    0     1.008   14.361836   10.525853    0.874519
  19 C     6.0000    0    12.011   16.666982   12.136210   -3.269424
  20 C     6.0000    0    12.011   14.973644    8.757193   -5.274935
  21 C     6.0000    0    12.011   17.844935    8.206246   -5.436190
  22 H     1.0000    0     1.008   14.319841    9.791273   -6.979614
  23 H     1.0000    0     1.008   13.828404    7.018733   -5.088089
  24 N     7.0000    0    14.007   19.065978   10.581885   -4.407760
  25 H     1.0000    0     1.008   18.549289    7.817869   -7.362795
  26 H     1.0000    0     1.008   18.393323    6.620886   -4.189417
  27 H     1.0000    0     1.008   17.240408   13.034333   -1.474378
  28 H     1.0000    0     1.008   16.301361   13.573434   -4.751378
  29 C     6.0000    0    12.011   21.176180   10.168616   -2.553232
  30 C     6.0000    0    12.011   23.497214    8.939474   -3.730361
  31 H     1.0000    0     1.008   20.383243    9.013729   -0.995474
  32 H     1.0000    0     1.008   21.654842   12.049976   -1.763331
  33 C     6.0000    0    12.011   25.642555    8.617283   -1.802382
  34 H     1.0000    0     1.008   24.171440   10.116578   -5.339323
  35 H     1.0000    0     1.008   22.997598    7.064208   -4.534160
  36 C     6.0000    0    12.011   27.995706    7.396355   -2.947417
  37 H     1.0000    0     1.008   24.946290    7.461350   -0.191686
  38 H     1.0000    0     1.008   26.130803   10.494681   -0.995020
  39 H     1.0000    0     1.008   27.577780    5.488375   -3.707524
  40 H     1.0000    0     1.008   29.505778    7.186743   -1.515299
  41 H     1.0000    0     1.008   28.770304    8.549948   -4.516284
  42 H     1.0000    0     1.008   19.786965   11.620548   -5.897807

--------------------------------
INTERNAL COORDINATES (ANGSTROEM)
--------------------------------
 C      0   0   0     0.000000000000     0.00000000     0.00000000
 C      1   0   0     1.349472422302     0.00000000     0.00000000
 H      1   2   0     1.099742676642   120.77465762     0.00000000
 H      1   2   3     1.101378665178   122.67699318   179.79996141
 C      2   1   3     1.470485006366   126.97786898   180.18780341
 H      2   1   3     1.103664885808   118.26483559   359.93909755
 C      5   2   1     1.417682709175   123.12902474   359.12876072
 C      7   5   2     1.394579387938   121.19909950   179.71298850
 C      8   7   5     1.412075904159   120.70970226     0.09533555
 C      5   2   1     1.412899467000   119.25789843   179.06279932
 C     10   5   2     1.400631069307   121.24977061   180.07619375
 H     10   5   2     1.100700499610   119.09702355     0.02316338
 H     11  10   5     1.102196625491   119.58359961   179.69483697
 H      8   7   5     1.100948605534   119.72892389   179.87953825
 H      7   5   2     1.099564103123   119.69664295     0.00000000
 C      9   8   7     1.507695266374   120.47117516   179.77232044
 N     16   9   8     1.482208219117   111.45059736   302.54174116
 H     16   9   8     1.117695765752   108.99884357   177.82696999
 H     16   9   8     1.110242488561   110.69438789    60.56620914
 C     17  16   9     1.398776189982   117.79439101   172.68792395
 C     17  16   9     1.457022001493   116.29022056   298.44047224
 C     21  17  16     1.549491962659   103.99495183   273.24955125
 H     21  17  16     1.110353260974   110.09022731   154.62210199
 H     21  17  16     1.106059736517   111.17487401    34.77263260
 N     22  21  17     1.514618815207   104.02647339   327.37724119
 H     22  21  17     1.104796843827   114.62311699   207.22307414
 H     22  21  17     1.106035822235   111.53994832    83.14323443
 H     20  17  16     1.104654426943   114.77250529   333.20128676
 H     20  17  16     1.109441474709   113.16861764   204.17242927
 C     25  22  21     1.502623080632   115.52492954   134.68973751
 C     30  25  22     1.523039588318   113.22499182    66.75302095
 H     30  25  22     1.108638375085   106.53357836   303.26122943
 H     30  25  22     1.109074171159   106.57242597   188.68039487
 C     31  30  25     1.535835944648   111.82829371   178.31379210
 H     31  30  25     1.113652621057   109.40124472    56.87744196
 H     31  30  25     1.111565613091   110.24000978   300.15816219
 C     34  31  30     1.528130436069   112.69812975   180.23620032
 H     34  31  30     1.111941009577   108.98617881    57.87689854
 H     34  31  30     1.111881851821   109.13696741   302.65714319
 H     37  34  31     1.109104556253   111.48156078   299.94804840
 H     37  34  31     1.106881009557   111.04952100   180.07428815
 H     37  34  31     1.109017634239   111.42519575    60.25061468
 H     25  22  21     1.034115974981   108.93960962   255.80045557

---------------------------
INTERNAL COORDINATES (A.U.)
---------------------------
 C      0   0   0     0.000000000000     0.00000000     0.00000000
 C      1   0   0     2.550133303429     0.00000000     0.00000000
 H      1   2   0     2.078212476638   120.77465762     0.00000000
 H      1   2   3     2.081304046930   122.67699318   179.79996141
 C      2   1   3     2.778813946069   126.97786898   180.18780341
 H      2   1   3     2.085624377804   118.26483559   359.93909755
 C      5   2   1     2.679032065137   123.12902474   359.12876072
 C      7   5   2     2.635373115214   121.19909950   179.71298850
 C      8   7   5     2.668436739169   120.70970226     0.09533555
 C      5   2   1     2.669993047393   119.25789843   179.06279932
 C     10   5   2     2.646809135652   121.24977061   180.07619375
 H     10   5   2     2.080022499734   119.09702355     0.02316338
 H     11  10   5     2.082849767909   119.58359961   179.69483697
 H      8   7   5     2.080491351982   119.72892389   179.87953825
 H      7   5   2     2.077875021594   119.69664295     0.00000000
 C      9   8   7     2.849131146856   120.47117516   179.77232044
 N     16   9   8     2.800967607579   111.45059736   302.54174116
 H     16   9   8     2.112138898315   108.99884357   177.82696999
 H     16   9   8     2.098054245624   110.69438789    60.56620914
 C     17  16   9     2.643303921716   117.79439101   172.68792395
 C     17  16   9     2.753372553920   116.29022056   298.44047224
 C     21  17  16     2.928115456138   103.99495183   273.24955125
 H     21  17  16     2.098263575147   110.09022731   154.62210199
 H     21  17  16     2.090149989774   111.17487401    34.77263260
 N     22  21  17     2.862214758026   104.02647339   327.37724119
 H     22  21  17     2.087763468453   114.62311699   207.22307414
 H     22  21  17     2.090104798331   111.53994832    83.14323443
 H     20  17  16     2.087494339546   114.77250529   333.20128676
 H     20  17  16     2.096540548814   113.16861764   204.17242927
 C     25  22  21     2.839546104903   115.52492954   134.68973751
 C     30  25  22     2.878127713041   113.22499182    66.75302095
 H     30  25  22     2.095022910466   106.53357836   303.26122943
 H     30  25  22     2.095846445696   106.57242597   188.68039487
 C     31  30  25     2.902309322017   111.82829371   178.31379210
 H     31  30  25     2.104498462122   109.40124472    56.87744196
 H     31  30  25     2.100554588626   110.24000978   300.15816219
 C     34  31  30     2.887748021080   112.69812975   180.23620032
 H     34  31  30     2.101263985177   108.98617881    57.87689854
 H     34  31  30     2.101152193218   109.13696741   302.65714319
 H     37  34  31     2.095903865202   111.48156078   299.94804840
 H     37  34  31     2.091701970901   111.04952100   180.07428815
 H     37  34  31     2.095739606400   111.42519575    60.25061468
 H     25  22  21     1.954195983427   108.93960962   255.80045557

--------------------------------------------------------------------------
WARNING: There was an error initializing an OpenFabrics device.

  Local host:   ga02
  Local device: mlx5_0
--------------------------------------------------------------------------


           ************************************************************
           *        Program running with 32 parallel MPI-processes    *
           *              working on a common directory               *
           ************************************************************
------------------------------------------------------------------------------
                   ___                                                        
                  /   \      - P O W E R E D   B Y -                         
                 /     \                                                     
                 |  |  |   _    _      __       _____    __    __             
                 |  |  |  | |  | |    /  \     |  _  \  |  |  /  |          
                  \  \/   | |  | |   /    \    | | | |  |  | /  /          
                 / \  \   | |__| |  /  /\  \   | |_| |  |  |/  /          
                |  |  |   |  __  | /  /__\  \  |    /   |      \           
                |  |  |   | |  | | |   __   |  |    \   |  |\   \          
                \     /   | |  | | |  |  |  |  | |\  \  |  | \   \       
                 \___/    |_|  |_| |__|  |__|  |_| \__\ |__|  \__/        
                                                                              
                      - O R C A' S   B I G   F R I E N D -                    
                                      &                                       
                       - I N T E G R A L  F E E D E R -                       
                                                                              
 v1 FN, 2020, v2 2021, v3 2022-2024                                           
------------------------------------------------------------------------------


----------------------
SHARK INTEGRAL PACKAGE
----------------------

Number of atoms                             ...     43
Number of basis functions                   ...    377
Number of shells                            ...    183
Maximum angular momentum                    ...      2
Integral batch strategy                     ... SHARK/LIBINT Hybrid
RI-J (if used) integral strategy            ... SPLIT-RIJ (Revised 2003 algorithm where possible)
Printlevel                                  ...      1
Contraction scheme used                     ... SEGMENTED contraction
Prescreening option                         ... SCHWARTZ
   Thresh                                   ... 2.500e-11
   Tcut                                     ... 2.500e-12
   Tpresel                                  ... 2.500e-12 
Coulomb Range Separation                    ... NOT USED
Exchange Range Separation                   ... NOT USED
Multipole approximations                    ... NOT USED
Finite Nucleus Model                        ... NOT USED
CABS basis                                  ... NOT available
Auxiliary Coulomb fitting basis             ... AVAILABLE
   # of basis functions in Aux-J            ...   1157
   # of shells in Aux-J                     ...    395
   Maximum angular momentum in Aux-J        ...      4
Auxiliary J/K fitting basis                 ... NOT available
Auxiliary Correlation fitting basis         ... NOT available
Auxiliary 'external' fitting basis          ... NOT available

Checking pre-screening integrals            ... done (  0.0 sec) Dimension = 183
Check shell pair data                       ... done (  0.0 sec)
Shell pair information
Shell pair cut-off parameter TPreSel        ...   2.5e-12
Total number of shell pairs                 ...     16836
Shell pairs after pre-screening             ...     11716
Total number of primitive shell pairs       ...     58620
Primitive shell pairs kept                  ...     27166
          la=0 lb=0:   3995 shell pairs
          la=1 lb=0:   4461 shell pairs
          la=1 lb=1:   1266 shell pairs
          la=2 lb=0:   1221 shell pairs
          la=2 lb=1:    676 shell pairs
          la=2 lb=2:     97 shell pairs

Calculating one electron integrals          ... done (  0.0 sec)
Calculating RI/J V-Matrix + Cholesky decomp.... done (  0.1 sec)
Calculating Nuclear repulsion               ... done (  0.0 sec) ENN=   1271.520796657464 Eh

Diagonalization of the overlap matrix:
Smallest eigenvalue                        ... 2.883e-04
Time for diagonalization                   ...    0.013 sec
Threshold for overlap eigenvalues          ... 1.000e-07
Number of eigenvalues below threshold      ... 0
Time for construction of square roots      ...    0.008 sec
Total time needed                          ...    0.025 sec

-------------------
DFT GRID GENERATION
-------------------

General Integration Accuracy     IntAcc      ... 4.388
Radial Grid Type                 RadialGrid  ... OptM3 with GC (2021)
Angular Grid (max. ang.)         AngularGrid ... 4 (Lebedev-302)
Angular grid pruning method      GridPruning ... 4 (adaptive)
Weight generation scheme         WeightScheme... mBecke (2022)
Basis function cutoff            BFCut       ... 1.0000e-11
Integration weight cutoff        WCut        ... 1.0000e-14
Partially contracted basis set               ... off
Rotationally invariant grid construction     ... off
Angular grids for H and He will be reduced by one unit

Total number of grid points                  ...   186879
Total number of batches                      ...     2945
Average number of points per batch           ...       63
Average number of grid points per atom       ...     4346
Initializing property integral containers    ... done (  0.0 sec)

SHARK setup successfully completed in   1.3 seconds

Maximum memory used throughout the entire STARTUP-calculation: 49.6 MB
[ga02:3520049] 31 more processes have sent help message help-mpi-btl-openib.txt / error in device init
[ga02:3520049] Set MCA parameter "orte_base_help_aggregate" to 0 to see all help / error messages
--------------------------------------------------------------------------
WARNING: There was an error initializing an OpenFabrics device.

  Local host:   ga02
  Local device: mlx5_0
--------------------------------------------------------------------------


           ************************************************************
           *        Program running with 32 parallel MPI-processes    *
           *              working on a common directory               *
           ************************************************************
Occupation numbers will be reassigned to an Aufbau configuration
             **** ENERGY FILE WAS UPDATED (input.en.tmp) ****
Finished Guess after   0.9 sec
Maximum memory used throughout the entire GUESS-calculation: 24.0 MB
[ga02:3520185] 31 more processes have sent help message help-mpi-btl-openib.txt / error in device init
[ga02:3520185] Set MCA parameter "orte_base_help_aggregate" to 0 to see all help / error messages
--------------------------------------------------------------------------
WARNING: There was an error initializing an OpenFabrics device.

  Local host:   ga02
  Local device: mlx5_0
--------------------------------------------------------------------------
[ga02:3520321] *** Process received signal ***
[ga02:3520321] Signal: Segmentation fault (11)
[ga02:3520321] Signal code: Address not mapped (1)
[ga02:3520321] Failing at address: (nil)
[ga02:3520321] [ 0] /usr/lib64/libpthread.so.0(+0x12cf0)[0x149d3ffbacf0]
[ga02:3520321] [ 1] /usr/lib64/libc.so.6(+0xc84d2)[0x149d3fcaa4d2]
[ga02:3520321] [ 2] /home/yongsang/.openmpi/lib/libopen-rte.so.40(+0x2b27d)[0x149d410a527d]
[ga02:3520321] [ 3] /home/yongsang/.openmpi/lib/libopen-rte.so.40(orte_show_help_recv+0x147)[0x149d410a56f7]
[ga02:3520321] [ 4] /home/yongsang/.openmpi/lib/libopen-rte.so.40(orte_rml_base_process_msg+0x39b)[0x149d4110121b]
[ga02:3520321] [ 5] /home/yongsang/.openmpi/lib/libopen-pal.so.40(opal_libevent2022_event_base_loop+0x769)[0x149d40def5b9]
[ga02:3520321] [ 6] mpirun[0x400f39]
[ga02:3520321] [ 7] /usr/lib64/libc.so.6(__libc_start_main+0xe5)[0x149d3fc1cd85]
[ga02:3520321] [ 8] mpirun[0x400cde]
[ga02:3520321] *** End of error message ***

ORCA finished by error termination in LEANSCF
Calling Command: mpirun -np 32  /home/yongsang/orca_6_0_1_linux_x86-64_shared_openmpi416/orca_leanscf_mpi input.gbw input 
[file orca_tools/qcmsg.cpp, line 394]: 
  .... aborting the run

[file orca_tools/qcmsg.cpp, line 394]: 
  .... aborting the run

