43
 energy: -52.427965758564 gnorm: 0.000392781554 xtb: 6.7.1 (edcfbbe)
C            1.53892114176936        2.02913083622463       -0.34810598294825
C            2.78961595623300        1.58573910932996       -0.30167064279822
H            0.70655797824202        1.34756819700949       -0.33345336820976
H            1.28843689020330        3.07498729948810       -0.39430807795106
C            3.99883345513320        2.39957570519106       -0.30606828529836
H            2.96674497935232        0.51925838298458       -0.24058487549825
C            3.98730205783361        3.78313458717272       -0.49973602225717
C            5.15871461456419        4.51012507835103       -0.48626292216178
C            6.38195631459582        3.88075572562467       -0.28174273739524
C            5.23236985241356        1.77717494028927       -0.10916354934313
C            6.40647490078305        2.50504551879616       -0.09919726433661
H            5.26905762533745        0.70844659371707        0.04255229099348
H            7.34717697390315        1.99658410378231        0.06495685547734
H            5.13483170028070        5.57912248258044       -0.63658394107659
H            3.05280996304609        4.29513518686751       -0.66358227920126
C            7.65067434510741        4.69096173509775       -0.28374560139894
N            7.80621504725936        5.35184705614575       -1.58070969109256
H            8.50409819809877        4.04281652850475       -0.03826651360357
H            7.58288621596509        5.47773413930822        0.47154112794263
C            8.83213384031503        6.29229888313260       -1.71537160574797
C            7.96998351491924        4.46606649745283       -2.70954155878724
C            9.49752874904235        4.23864594486768       -2.78762187449262
H            7.60601201838809        4.96046151577481       -3.61340483691430
H            7.41167734460677        3.54387748962371       -2.56332943624609
N           10.07820728811122        5.51525692120812       -2.29244501789124
H            9.83637884725334        4.00923372851779       -3.79459607637579
H            9.78867181465221        3.43068463025667       -2.11674675705645
H            9.09576080836846        6.78275688483565       -0.77944857180423
H            8.58077582366463        7.03826881175181       -2.47498201266188
C           11.19076525105523        5.35622912457960       -1.32916775423384
C           12.43492656881078        4.76254105266911       -1.98287344007104
H           10.85007102468379        4.72432980103741       -0.50642388183320
H           11.43341827068892        6.34281865321182       -0.92695453045991
C           13.59159538813158        4.68004372122291       -0.98319172334261
H           12.74080948141677        5.38782417030381       -2.82551499399334
H           12.22704810402089        3.76124550847578       -2.36396976445129
C           14.83610731714152        4.08385284911160       -1.62752072015451
H           13.29302484616269        4.06548405491261       -0.13236502792940
H           13.82041780282562        5.67946559897787       -0.60976018480144
H           14.63947285347670        3.07790409520929       -1.98921789591166
H           15.64403611452848        4.03381798940930       -0.90410373407819
H           15.16608499395172        4.69326859842931       -2.46493829352187
H           10.44589372366905        6.05015026848888       -3.08240882701872
