43
 energy: -52.407044883290 gnorm: 0.085936022570 xtb: 6.7.1 (edcfbbe)
C            0.75297000000000        2.88068000000000       -0.82066000000000
C            1.90364000000000        2.19787000000000       -0.88631000000000
H           -0.18387000000000        2.36606000000000       -1.00898000000000
H            0.70429000000000        3.93554000000000       -0.58578000000000
C            3.25525000000000        2.77730000000000       -0.65068000000000
H            1.83717000000000        1.14074000000000       -1.12997000000000
C            3.46842000000000        4.13168000000000       -0.32905000000000
C            4.76266000000000        4.61555000000000       -0.11720000000000
C            5.87744000000000        3.76499000000000       -0.22191000000000
C            4.36879000000000        1.92885000000000       -0.75231000000000
C            5.66243000000000        2.41359000000000       -0.54043000000000
H            4.23853000000000        0.88104000000000       -0.99549000000000
H            6.48152000000000        1.71881000000000       -0.62358000000000
H            4.89000000000000        5.66250000000000        0.12931000000000
H            2.65076000000000        4.83006000000000       -0.23615000000000
C            7.26833000000000        4.31770000000000        0.01967000000000
N            8.09625000000000        4.24263000000000       -1.20368000000000
H            7.75740000000000        3.79998000000000        0.87477000000000
H            7.15830000000000        5.38469000000000        0.31948000000000
C            9.12458000000000        5.30384000000000       -1.26795000000000
C            8.85439000000000        2.98762000000000       -1.34968000000000
C           10.31127000000000        3.38751000000000       -1.25058000000000
H            8.66417000000000        2.62051000000000       -2.38176000000000
H            8.61282000000000        2.18082000000000       -0.62762000000000
N           10.32446000000000        4.70722000000000       -1.87186000000000
H           10.98955000000000        2.64916000000000       -1.72994000000000
H           10.57785000000000        3.48050000000000       -0.17015000000000
H            9.37007000000000        5.66369000000000       -0.23758000000000
H            8.76032000000000        6.17337000000000       -1.85742000000000
C           11.54284000000000        5.49821000000000       -1.59992000000000
C           12.78517000000000        4.89320000000000       -2.27493000000000
H           11.72132000000000        5.57818000000000       -0.50322000000000
H           11.39780000000000        6.52745000000000       -1.99947000000000
C           14.02486000000000        5.75712000000000       -2.01451000000000
H           12.60850000000000        4.82413000000000       -3.37065000000000
H           12.97071000000000        3.87340000000000       -1.87595000000000
C           15.26189000000000        5.16195000000000       -2.68068000000000
H           14.20697000000000        5.82861000000000       -0.91996000000000
H           13.85881000000000        6.78069000000000       -2.41606000000000
H           15.46494000000000        4.14579000000000       -2.28015000000000
H           16.14212000000000        5.80707000000000       -2.47496000000000
H           15.11611000000000        5.09886000000000       -3.78000000000000
H           10.17268000000000        4.61251000000000       -2.90608000000000
43
 energy: -52.417207557889 gnorm: 0.031175069676 xtb: 6.7.1 (edcfbbe)
C            0.76601184699821        2.88277141836542       -0.81816527397510
C            1.91632435449480        2.21689965315820       -0.88046093641207
H           -0.16706554249938        2.37443580339301       -1.00394799219048
H            0.70430483876154        3.93172961609658       -0.58534791507004
C            3.25501977362678        2.77905279012707       -0.65139568618980
H            1.87744567587866        1.16140712223938       -1.12098378645795
C            3.47708370514710        4.12076552115335       -0.33306841970992
C            4.76225319403882        4.59915167079839       -0.13117842404041
C            5.87054791631977        3.76014302383382       -0.23211779756075
C            4.36759047786847        1.94120308553163       -0.75082020215009
C            5.65124488322622        2.42021800634479       -0.54024574710746
H            4.23379126473782        0.89601429514754       -0.99082726514782
H            6.47405061375234        1.72742171184225       -0.61781355386124
H            4.89478196096297        5.64248346340898        0.12035884927531
H            2.65577515281832        4.81287159305193       -0.23855000558596
C            7.25739865370967        4.31221835725514        0.01502318424832
N            8.10708820799155        4.23917992535285       -1.18440852073675
H            7.74101782360408        3.79132928453511        0.86005912458439
H            7.15737141848894        5.36975276453451        0.29693202075724
C            9.10968466572080        5.30771574150900       -1.25167626735443
C            8.84941141523105        2.98521825701998       -1.36561425999849
C           10.31739882211816        3.37236764489980       -1.24141879473264
H            8.63529272177479        2.60281549281467       -2.37593214140770
H            8.58112636867616        2.21062607007605       -0.64194256542351
N           10.32552858989854        4.71133203202546       -1.84352741550685
H           10.99350376813728        2.66461092989537       -1.73077872788225
H           10.60610853741944        3.47335412627734       -0.18504868100685
H            9.36877516070233        5.68074476481754       -0.24291514637403
H            8.74250528139924        6.15324146989392       -1.85088711198194
C           11.55055871209746        5.50339428202107       -1.60749123615456
C           12.78660726863043        4.89794144362558       -2.27503646640993
H           11.71095129270282        5.57305058224202       -0.52424506265559
H           11.39177374431001        6.52041834236888       -1.99129100013643
C           14.02560557085452        5.75652118474669       -2.01816372985007
H           12.61903610638598        4.82013109300240       -3.35653625297491
H           12.97369517155320        3.89040285349811       -1.88682687895110
C           15.26176589912804        5.16301657476969       -2.67987966829519
H           14.19589630551206        5.83557740325727       -0.93787497992190
H           13.85679519121836        6.76878559030141       -2.40371760566414
H           15.46913862121990        4.16278974056238       -2.29385523025197
H           16.13286325669394        5.78946343469265       -2.48346462767514
H           15.12945804499602        5.09455916427035       -3.76145540764938
H           10.17896326369279        4.61454267524244       -2.86349239441042
43
 energy: -52.418758924381 gnorm: 0.008240560066 xtb: 6.7.1 (edcfbbe)
C            0.77480766238927        2.88432224388288       -0.81380823456131
C            1.92721081220558        2.22799850116033       -0.87554740388980
H           -0.15785724128245        2.38015817008852       -0.99628020142791
H            0.70562077024912        3.93232717430266       -0.58283972253608
C            3.25731726373756        2.78228325736952       -0.65433978911094
H            1.91028862459879        1.17167645568428       -1.11284115013730
C            3.48583712159531        4.12064506277029       -0.34021977456932
C            4.76752153439065        4.59560117090164       -0.14552705724647
C            5.87159766070314        3.75785226552752       -0.24591843156252
C            4.36869365148887        1.94552752387673       -0.75213794574393
C            5.64843065778559        2.42040516760209       -0.54545859428734
H            4.22819855414577        0.90048718928595       -0.98602773163909
H            6.47226361038990        1.72628569502528       -0.61308201574220
H            4.90653452522291        5.63827172105211        0.10296562032401
H            2.65962063548189        4.80631792252561       -0.24292550077293
C            7.25446779788551        4.30702732020053        0.01177334992232
N            8.11873626671521        4.23953787612925       -1.17256187537509
H            7.72044610896441        3.77909132937300        0.85810636125646
H            7.15272814902759        5.35908389024211        0.28279299839732
C            9.10144768998996        5.31094874058968       -1.23843979933366
C            8.84529918658258        2.98433693617535       -1.36674354815250
C           10.32038816178226        3.35834599021060       -1.24136207118576
H            8.62491384673933        2.59621323499778       -2.36704644424247
H            8.55750397818625        2.22969017625860       -0.63675447841705
N           10.32746228967153        4.71449727671983       -1.82738485875283
H           10.99072139919070        2.67212642050122       -1.75319506253612
H           10.61691626685761        3.44527879804114       -0.19407181400032
H            9.36131773545542        5.69884031438930       -0.24036747985064
H            8.73292594470844        6.13775638527552       -1.85308642362176
C           11.55740136166435        5.50646241579626       -1.60289598542062
C           12.78383697595362        4.89900320868398       -2.27744409281287
H           11.71839530774249        5.57296496567931       -0.52531402876211
H           11.38955282899389        6.51488338432825       -1.98641324768356
C           14.02274036304513        5.75967177544476       -2.02027489982825
H           12.61986032549039        4.82127143688025       -3.35384701883491
H           12.97429231835470        3.89843033285792       -1.88926425797152
C           15.25788394168888        5.16293167848513       -2.68023370132100
H           14.19081490371524        5.83883775121828       -0.94568472226292
H           13.85553491711086        6.76581690197562       -2.40505320786537
H           15.46146658843907        4.16902374087366       -2.29358515552802
H           16.12282985483120        5.78609668376194       -2.48339523326066
H           15.12672184971492        5.09427445624676       -3.75564759907612
H           10.18178779839655        4.61906705760860       -2.83864777057687
43
 energy: -52.418996436122 gnorm: 0.004116022911 xtb: 6.7.1 (edcfbbe)
C            0.77672290068944        2.88446522658943       -0.81061526151397
C            1.93008410002557        2.23020577416892       -0.87385738828835
H           -0.15724872457210        2.38112163624106       -0.98799548895023
H            0.70716616751959        3.93332560750455       -0.58084425187330
C            3.25880258634178        2.78494117845982       -0.65756876337592
H            1.91970742457173        1.17286975252348       -1.10792576585303
C            3.48954771756459        4.12508402663575       -0.34879732274764
C            4.77136528434004        4.59877899100770       -0.15734053090721
C            5.87322699741130        3.75695163322398       -0.25187488399670
C            4.36907088607450        1.94528353463517       -0.75338441795916
C            5.64878745011468        2.41796353117877       -0.54668160565772
H            4.22416800559687        0.89969130655438       -0.98307072794719
H            6.47234047999706        1.72277592597670       -0.60995493339490
H            4.91482035675461        5.64219646495012        0.08558871678024
H            2.66113220594701        4.80829838767062       -0.25248826342914
C            7.25399040764435        4.30483355090029        0.01420985009243
N            8.12378234120468        4.23879430495715       -1.16414666820802
H            7.71155666383906        3.77367759187170        0.86294298273465
H            7.15060482046929        5.35639705450624        0.28401469350784
C            9.09811128480085        5.31132460186361       -1.23307488051654
C            8.84332728313201        2.98277239052619       -1.36327768447449
C           10.32156037691655        3.35032043464276       -1.24547221807631
H            8.61545756375429        2.59209204719372       -2.36066828116393
H            8.55294761595002        2.23427838002618       -0.62807753754266
N           10.32781470689991        4.71480613304055       -1.82162528139301
H           10.98626079924666        2.67339878593526       -1.77691631990876
H           10.62852337230014        3.42402890676937       -0.20010966995872
H            9.35700022096520        5.71025334257617       -0.23875688835940
H            8.73005950806797        6.13117434445681       -1.85777888593382
C           11.55889205762209        5.50689173176121       -1.59679501193893
C           12.78225646155040        4.90061145141837       -2.27614557768276
H           11.72439912396376        5.57109321378200       -0.51953507407575
H           11.38728964665172        6.51500018465982       -1.97939915347540
C           14.02170782593996        5.76321560937526       -2.02132321474064
H           12.61621925839528        4.82539095871783       -3.35228676248359
H           12.97614944542335        3.90021779641490       -1.88887567155685
C           15.25702476114167        5.16373094631357       -2.68059707762666
H           14.18919699086640        5.84334108680060       -0.94669530197806
H           13.85350231540146        6.76804760438459       -2.40925209250724
H           15.45809855801602        4.16967726655217       -2.29148471251264
H           16.12292896430460        5.78680283139916       -2.48404162715145
H           15.12502620507941        5.09346386707030       -3.75631944627352
H           10.18109758207616        4.62208060476384       -2.83173159768159
43
 energy: -52.419157764095 gnorm: 0.003226783075 xtb: 6.7.1 (edcfbbe)
C            0.77716290559630        2.88439900254224       -0.80414766026715
C            1.93097097152889        2.23118839695523       -0.87159511396981
H           -0.15882596690452        2.38178344686145       -0.97447684170269
H            0.70972044248805        3.93495282251402       -0.57843975971262
C            3.26003493200876        2.78851990990944       -0.66316475505881
H            1.92404527181502        1.17274322283400       -1.10105234133957
C            3.49264539435425        4.13195954503570       -0.36506330236118
C            4.77498962414050        4.60374593079629       -0.17435307397520
C            5.87431911307761        3.75589787167918       -0.25625626647607
C            4.36873539728341        1.94472484721513       -0.75383009627603
C            5.64895773851126        2.41496219968729       -0.54530282580027
H            4.21909746037436        0.89840066820631       -0.97806277852459
H            6.47179903544657        1.71820403635903       -0.60135118082161
H            4.92387651954940        5.64894291083683        0.05786203918680
H            2.66266693889416        4.81421795048002       -0.27579766135591
C            7.25350065488033        4.30144244741342        0.02040267976345
N            8.12911656458978        4.23718481807195       -1.15172280168061
H            7.70304619216115        3.76718316028467        0.87184432514155
H            7.14938906908861        5.35271203888101        0.29271417717199
C            9.09533089939024        5.31062233884961       -1.22824174360968
C            8.84157160518014        2.98032420344915       -1.35662587463541
C           10.32321881244563        3.34058901154657       -1.25560114994583
H            8.60132664193796        2.58579102129319       -2.35025247442845
H            8.55585433870562        2.23644341270741       -0.61421637060818
N           10.32876945219788        4.71480743860797       -1.81687051042718
H           10.97732563328438        2.67272470362291       -1.81251963910703
H           10.64815217365704        3.39534177052117       -0.21361297644500
H            9.35269877794687        5.72310837568567       -0.23816082960907
H            8.72804461961959        6.12406058281542       -1.86361414851123
C           11.56014775063303        5.50584947191218       -1.58705468439179
C           12.78110712965990        4.90393241155425       -2.27360074580685
H           11.72915122317787        5.56453640722204       -0.50917218864516
H           11.38577854105936        6.51625733087470       -1.96443454447749
C           14.02107801051062        5.76873229058025       -2.02268507025211
H           12.61017984444139        4.83172741154575       -3.34980279913017
H           12.97906648604328        3.90252905606587       -1.88902880223816
C           15.25599838755666        5.16562463363896       -2.68071506472763
H           14.18927473481263        5.85287359316634       -0.94781407126208
H           13.85192429008741        6.77213469291551       -2.41577332892773
H           15.45503993662538        4.17142690975716       -2.28806773680810
H           16.12376119313566        5.78844864961050       -2.48578874096771
H           15.12319286747650        5.09239784639835       -3.75713100226893
H           10.18123839153102        4.62822120909597       -2.82745226471076
43
 energy: -52.419242250166 gnorm: 0.003797436434 xtb: 6.7.1 (edcfbbe)
C            0.77681429010000        2.88539334729795       -0.79982486648978
C            1.93036994922865        2.23201711116579       -0.87140613822123
H           -0.16075375271622        2.38211677960811       -0.96075206688985
H            0.71160235121811        3.93645591419402       -0.57514627661359
C            3.26054518895944        2.79100472766634       -0.66844723649276
H            1.92262693830307        1.17254028768506       -1.09561105560585
C            3.49419967851819        4.13714460288559       -0.38178986518889
C            4.77687617442232        4.60748032095921       -0.18924256874835
C            5.87452847004682        3.75548890078486       -0.25745533729637
C            4.36793709866960        1.94434604514544       -0.75177279311518
C            5.64851979676888        2.41325764763890       -0.54074053608061
H            4.21610259652004        0.89734207679517       -0.97132522461851
H            6.47062787143398        1.71508875044589       -0.58931404630406
H            4.92864609864298        5.65423885192030        0.03401993706368
H            2.66448402299096        4.82107260596598       -0.30304909077470
C            7.25348668767431        4.29831155706307        0.02657505472100
N            8.13213685232025        4.23500335495855       -1.14238581323762
H            7.69862561377902        3.76109381802537        0.87885408895281
H            7.15036097583219        5.34921592311208        0.30286669974502
C            9.09445581994335        5.30910574828081       -1.22558868447547
C            8.84098131223591        2.97788283784053       -1.35142401599378
C           10.32462562752251        3.33462083780575       -1.26664843221728
H            8.58955543903907        2.57986903406437       -2.34139639460299
H            8.56360194252345        2.23589642724596       -0.60313445665275
N           10.32941471013475        4.71469858298498       -1.81568711857857
H           10.96865453304389        2.67111550523287       -1.84036119619816
H           10.66503188806462        3.37623841462351       -0.22877357239335
H            9.35152714620233        5.72915400600237       -0.23825670013389
H            8.72644697343183        6.11923106967821       -1.86577495806538
C           11.56044269494654        5.50379519224054       -1.57895989396250
C           12.78083884173615        4.90697466616479       -2.27098332398045
H           11.72979698372359        5.55471187131720       -0.50031100005990
H           11.38611482507098        6.51766660566876       -1.94845028162867
C           14.02059899506954        5.77329613302108       -2.02386657654569
H           12.60549059859197        4.83720457682965       -3.34703971688003
H           12.98196596234436        3.90446836318445       -1.88982855439676
C           15.25506178697280        5.16788195140852       -2.68047915722958
H           14.18960794370482        5.86186546649381       -0.94914085290710
H           13.85081128028258        6.77544414187501       -2.42091398337079
H           15.45371016551167        4.17428639373143       -2.28509349813637
H           16.12369662402813        5.79070733224120       -2.48756486325578
H           15.12193302978854        5.09169933273532       -3.75701167723742
H           10.18237797337398        4.63524288601135       -2.82739395590258
43
 energy: -52.419335680808 gnorm: 0.003756200730 xtb: 6.7.1 (edcfbbe)
C            0.77592905567683        2.88714608815187       -0.78980837730411
C            1.92892777130189        2.23352625827428       -0.87018363422919
H           -0.16267361666261        2.38387191761511       -0.94423053427744
H            0.71380148089844        3.93944388810027       -0.57043505782927
C            3.26113100755577        2.79405556773863       -0.67665736754025
H            1.91799409870383        1.17358768433323       -1.09107600756109
C            3.49634847048090        4.14360470890465       -0.40764013702262
C            4.77924617474180        4.61205799991609       -0.21027685237062
C            5.87463778907936        3.75525577091023       -0.25728205759206
C            4.36662106363054        1.94383039703386       -0.74646212307688
C            5.64739980109188        2.41137406137022       -0.53083907543658
H            4.21328852346277        0.89531283383400       -0.95737857543193
H            6.46830903398775        1.71095175233767       -0.56686989498002
H            4.93324240573210        5.66107633566843        0.00061139736770
H            2.66857420734058        4.83200553521330       -0.34661539978517
C            7.25412761958479        4.29349067725820        0.03492099222885
N            8.13496375524551        4.23112037862906       -1.13184260848625
H            7.69495388056838        3.75098816288416        0.88640893594257
H            7.15397892892277        5.34359505255615        0.31750325986898
C            9.09437307960356        5.30632084408250       -1.22256616005987
C            8.84095102206264        2.97405147315312       -1.34557718465663
C           10.32649434859437        3.32890207680723       -1.28364602865007
H            8.57430975433618        2.57084498546617       -2.32975057424696
H            8.57727979281604        2.23381503850898       -0.58938680567559
N           10.32949120528239        4.71465647727568       -1.81680850022496
H           10.95670871747862        2.66903682666223       -1.87617530700439
H           10.68697916626732        3.35603543171316       -0.25231552432610
H            9.35268895847056        5.73178222466171       -0.23795358694474
H            8.72310141287410        6.11366955076824       -1.86487229206300
C           11.56007738624771        5.49994249781475       -1.56859411556834
C           12.78056076208749        4.91082326650225       -2.26775484183518
H           11.72804104166833        5.53713926732606       -0.48889193709771
H           11.38777990950776        6.51940566312597       -1.92461919277091
C           14.01909141937185        5.77947040223273       -2.02531140795462
H           12.59949781008465        4.84387623143026       -3.34335766800285
H           12.98606328794398        3.90715851071780       -1.89142627978324
C           15.25338724040662        5.17164067640048       -2.67923803337187
H           14.18883402931451        5.87474378093843       -0.95108667260875
H           13.84847793729779        6.77959817140904       -2.42764685049711
H           15.45265598002264        4.17978952134809       -2.27967149082504
H           16.12217728532245        5.79520347171224       -2.48950031712683
H           15.12034758873050        5.09049509532338       -3.75548926087554
H           10.18430941286461        4.64697344389031       -2.83023685031443
43
 energy: -52.419409020029 gnorm: 0.003083812211 xtb: 6.7.1 (edcfbbe)
C            0.77611807021994        2.89170023231638       -0.78609808856168
C            1.92813492462692        2.23722978085579       -0.87386145853829
H           -0.16380323887115        2.38608216483539       -0.92579978941395
H            0.71541529384718        3.94241729563590       -0.56069126069169
C            3.26174225607589        2.79644748085107       -0.68387642606857
H            1.91297858665303        1.17634864520874       -1.08983987653979
C            3.49931828267093        4.14910145518366       -0.43427065981868
C            4.78225523890873        4.61596257842234       -0.23151284506267
C            5.87497529863101        3.75498796212866       -0.25621017762454
C            4.36505590330205        1.94249661869254       -0.73633390932825
C            5.64576815609254        2.40914591195217       -0.51691480721533
H            4.21116832059280        0.89202697789700       -0.93676219201520
H            6.46524989433532        1.70618264647102       -0.53829898566965
H            4.93724412373141        5.66735723807538       -0.03331060647848
H            2.67479095151492        4.84331749765697       -0.39306711158445
C            7.25538231968828        4.28827223602581        0.04175692262548
N            8.13650670442262        4.22685062646457       -1.12487716179782
H            7.69347777962429        3.73969300845060        0.89069408555059
H            7.15912635387040        5.33728783457956        0.33013357931532
C            9.09505740070344        5.30317813885390       -1.21906556174689
C            8.84120921649394        2.96998545590689       -1.34228004913598
C           10.32777216255744        3.32540484180527       -1.30089842431263
H            8.56132943415730        2.56186783595329       -2.32041424105229
H            8.59048932972497        2.23131889011327       -0.57933889479054
N           10.32833523891111        4.71493190045391       -1.81982510617779
H           10.94598096469118        2.66803315122784       -1.90814512048737
H           10.70504345804785        3.34154864748034       -0.27601806492685
H            9.35646931006885        5.72798590281849       -0.23551467803390
H            8.71875780621399        6.11010533837644       -1.85861988052394
C           11.55920194614332        5.49547709835930       -1.55990693996301
C           12.77996702146798        4.91365504606716       -2.26548395705212
H           11.72514075634551        5.51746213998674       -0.47952305636720
H           11.38999970309060        6.52034949641385       -1.90166138065919
C           14.01641620704865        5.78516394480210       -2.02639270255155
H           12.59423485504951        4.84914350709378       -3.34042978164687
H           12.98984033194768        3.90936302245977       -1.89356558949996
C           15.25151516680314        5.17617121545932       -2.67705120195663
H           14.18599872985243        5.88638048699732       -0.95279168610577
H           13.84473632840241        6.78318254504156       -2.43325959845460
H           15.45243348737746        4.18678173226962       -2.27288846582029
H           16.11929105961241        5.80159141018657       -2.49051407878145
H           15.11887227887421        5.08947098610462       -3.75269639037244
H           10.18548258647742        4.66020907406543       -2.83460438066319
43
 energy: -52.419475907346 gnorm: 0.002476047121 xtb: 6.7.1 (edcfbbe)
C            0.77641131567711        2.89564079874107       -0.77519964942570
C            1.92758401522816        2.24105708149748       -0.87405642129643
H           -0.16313372341182        2.39156688173415       -0.91739822745879
H            0.71711274548202        3.94663353256641       -0.55156701919214
C            3.26258136771161        2.79840216230142       -0.69038300237768
H            1.90914238508402        1.18129224064442       -1.09467906674961
C            3.50352269415336        4.15362650766515       -0.46038038865397
C            4.78641301551219        4.61907737243162       -0.25273561927363
C            5.87574850548506        3.75413350737207       -0.25501338997477
C            4.36332998171541        1.94035143695581       -0.72309146643710
C            5.64371731228365        2.40589150096666       -0.49974192997854
H            4.20866528702210        0.88720659432405       -0.90922854510410
H            6.46147822331581        1.70019141952274       -0.50461543365314
H            4.94210748778829        5.67284984126264       -0.06771450880923
H            2.68278529790677        4.85336855155222       -0.43808993978656
C            7.25699596578292        4.28293410545271        0.04608733215555
N            8.13697620496514        4.22299540792958       -1.12198156552139
H            7.69385809216033        3.72840683829985        0.89136595763629
H            7.16452377947980        5.33070670630828        0.33907101243491
C            9.09625668642150        5.30004971487097       -1.21432932528458
C            8.84113849963193        2.96617119961096       -1.34236544019688
C           10.32805543204571        3.32321560570514       -1.31725427111838
H            8.55077716076928        2.55419372909659       -2.31502862833670
H            8.60037011125690        2.22924008177456       -0.57441551939859
N           10.32609647543820        4.71564446576707       -1.82359635881981
H           10.93712875025935        2.66843976793668       -1.93608648980000
H           10.71807668784876        3.33073896343249       -0.29780741890940
H            9.36219631733745        5.71840322414970       -0.22978581493451
H            8.71459598608890        6.10948586943085       -1.84676368827212
C           11.55822528736234        5.49105004791873       -1.55351797550715
C           12.77895293703662        4.91524980143557       -2.26447661539316
H           11.72250309661727        5.49853196762405       -0.47301475713817