43
 energy: -52.642356134807 gnorm: 0.143837164708 xtb: 6.7.1 (edcfbbe)
C            0.75297000000000        2.88068000000000       -0.82066000000000
C            1.90364000000000        2.19787000000000       -0.88631000000000
H           -0.18387000000000        2.36606000000000       -1.00898000000000
H            0.70429000000000        3.93554000000000       -0.58578000000000
C            3.25525000000000        2.77730000000000       -0.65068000000000
H            1.83717000000000        1.14074000000000       -1.12997000000000
C            3.46842000000000        4.13168000000000       -0.32905000000000
C            4.76266000000000        4.61555000000000       -0.11720000000000
C            5.87744000000000        3.76499000000000       -0.22191000000000
C            4.36879000000000        1.92885000000000       -0.75231000000000
C            5.66243000000000        2.41359000000000       -0.54043000000000
H            4.23853000000000        0.88104000000000       -0.99549000000000
H            6.48152000000000        1.71881000000000       -0.62358000000000
H            4.89000000000000        5.66250000000000        0.12931000000000
H            2.65076000000000        4.83006000000000       -0.23615000000000
C            7.26833000000000        4.31770000000000        0.01967000000000
N            8.09625000000000        4.24263000000000       -1.20368000000000
H            7.75740000000000        3.79998000000000        0.87477000000000
H            7.15830000000000        5.38469000000000        0.31948000000000
C            9.12458000000000        5.30384000000000       -1.26795000000000
C            8.85439000000000        2.98762000000000       -1.34968000000000
C           10.31127000000000        3.38751000000000       -1.25058000000000
H            8.66417000000000        2.62051000000000       -2.38176000000000
H            8.61282000000000        2.18082000000000       -0.62762000000000
N           10.32446000000000        4.70722000000000       -1.87186000000000
H           10.98955000000000        2.64916000000000       -1.72994000000000
H           10.57785000000000        3.48050000000000       -0.17015000000000
H            9.37007000000000        5.66369000000000       -0.23758000000000
H            8.76032000000000        6.17337000000000       -1.85742000000000
C           11.54284000000000        5.49821000000000       -1.59992000000000
C           12.78517000000000        4.89320000000000       -2.27493000000000
H           11.72132000000000        5.57818000000000       -0.50322000000000
H           11.39780000000000        6.52745000000000       -1.99947000000000
C           14.02486000000000        5.75712000000000       -2.01451000000000
H           12.60850000000000        4.82413000000000       -3.37065000000000
H           12.97071000000000        3.87340000000000       -1.87595000000000
C           15.26189000000000        5.16195000000000       -2.68068000000000
H           14.20697000000000        5.82861000000000       -0.91996000000000
H           13.85881000000000        6.78069000000000       -2.41606000000000
H           15.46494000000000        4.14579000000000       -2.28015000000000
H           16.14212000000000        5.80707000000000       -2.47496000000000
H           15.11611000000000        5.09886000000000       -3.78000000000000
H           10.17268000000000        4.61251000000000       -2.90608000000000
43
 energy: -52.658079037191 gnorm: 0.067897869455 xtb: 6.7.1 (edcfbbe)
C            0.75099189942928        2.88787731813644       -0.81952186766163
C            1.92560347865820        2.21795911892405       -0.88062573437755
H           -0.18272865524432        2.37570335615116       -1.00504382248923
H            0.68733698456159        3.93663521592283       -0.58631569615129
C            3.24345954939396        2.76843341034832       -0.65669707810073
H            1.88307458045323        1.16000520539265       -1.12129871037285
C            3.47462752252561        4.13069144186781       -0.33503193142281
C            4.74752271864297        4.60681466443331       -0.13030016875724
C            5.87151816147005        3.76010968449101       -0.21590648738193
C            4.37696567086673        1.92886760133806       -0.75230573787131
C            5.64924107632522        2.40302900304806       -0.53769373988723
H            4.24499750662584        0.88171119202956       -0.99353008370258
H            6.47814476761730        1.71140942441762       -0.61482033463446
H            4.88352892064610        5.65285606904500        0.12323717986844
H            2.65200596005002        4.82278165111427       -0.23733843674497
C            7.24530070973145        4.30800313378918        0.02709929694678
N            8.10152093772941        4.24119599887982       -1.18484209935836
H            7.76831327220744        3.79195629674411        0.85734919040337
H            7.15416054198611        5.36890212940085        0.30451624730971
C            9.10200548761245        5.30611557672982       -1.25543687892010
C            8.84483370777121        2.98920432134134       -1.36565973164331
C           10.31392140814500        3.37073459003893       -1.24342719218761
H            8.63413316422065        2.60297979374795       -2.37565219568427
H            8.56958146353682        2.21663111227410       -0.63958957775612
N           10.32703303748668        4.71102060432592       -1.85077653497515
H           10.99173481808972        2.66272304796750       -1.73116492271507
H           10.59899840671328        3.47788711748168       -0.18655604597962
H            9.36775251072913        5.67392644003746       -0.24489267486946
H            8.73848742872689        6.15655757161359       -1.84959844035738
C           11.56630284413947        5.50905247918213       -1.60768279239809
C           12.79649695290539        4.90053496104890       -2.27504337623112
H           11.71960867814667        5.57702264196963       -0.52324816608624
H           11.40043449359669        6.52447414078133       -1.99221494234633
C           14.03512607022139        5.75781570529359       -2.01858554416299
H           12.62286416439621        4.82216991990267       -3.35585124303226
H           12.97623628732483        3.89170947145260       -1.88597109827513
C           15.26962176855183        5.16399482705887       -2.68083370767351
H           14.20229123913230        5.83607398742255       -0.93741834637945
H           13.86276484548591        6.76997674268349       -2.40405095682358
H           15.47178344951287        4.16258263032933       -2.29394173581074
H           16.14186615985118        5.79004093017026       -2.48505971017071
H           15.13162476103911        5.09498104131352       -3.76213967492435
H           10.17339124898813        4.60851843035872       -2.87616449621153
43
 energy: -52.662842249345 gnorm: 0.028612900677 xtb: 6.7.1 (edcfbbe)
C            0.74945142973317        2.88907775314625       -0.81949001680784
C            1.94065898018434        2.23501434078143       -0.87777924265087
H           -0.17997987449895        2.37523101306160       -1.00075969709439
H            0.67399810856275        3.93558784650365       -0.58738302130375
C            3.22938269943850        2.76355865379874       -0.66300751736091
H            1.91358181244986        1.17465216924593       -1.11454944042648
C            3.48191143564424        4.13053981353514       -0.34237184715859
C            4.74214770448455        4.59840495680188       -0.14100673286384
C            5.87329715873615        3.75414998446114       -0.20861651205559
C            4.37875243777558        1.92985349123800       -0.74881894359616
C            5.63768929732166        2.39481539511326       -0.52906436436632
H            4.23893009631974        0.88235223023028       -0.98977813221407
H            6.47401744711317        1.70518371529607       -0.59317489094581
H            4.89120823133908        5.64505165557474        0.11028254157492
H            2.65092897107328        4.81443740747903       -0.24862690769151
C            7.22691005384665        4.29635133297414        0.03573349257303
N            8.10625520564517        4.24461893512681       -1.17759592595091
H            7.76833898442405        3.77593340358530        0.84951786228591
H            7.14291017454143        5.35146689863849        0.30114710666992
C            9.07267807080962        5.31173227896362       -1.24305105956814
C            8.83120186444679        2.99325261587861       -1.37199158094864
C           10.31021327984023        3.35268820434338       -1.24356284516296
H            8.61457620794656        2.59545845961884       -2.36861812008080
H            8.52473924375118        2.24831543606668       -0.63659400851460
N           10.32727825650044        4.71665734238927       -1.83591991730723
H           10.98228911944693        2.66839565469435       -1.75148695576164
H           10.60274219355582        3.45557629538317       -0.19881011532248
H            9.35336351619865        5.68874834449515       -0.24469990504975
H            8.71264598198308        6.14584686742511       -1.84895585265730
C           11.59474895544031        5.52184786087786       -1.61120681316546
C           12.81009717956174        4.90703054602570       -2.27948891835873
H           11.73185023019082        5.57758419437455       -0.53222185946974
H           11.41093914210602        6.52496406958525       -1.99351267818141
C           14.05059751938661        5.76268431425920       -2.02253731016121
H           12.64092396585941        4.82662679164809       -3.35365663163903
H           12.98713779750456        3.90603925581802       -1.88932856711774
C           15.28263581559162        5.16462434404783       -2.68327775699913
H           14.21239807726317        5.84076784077247       -0.94817673459023
H           13.87876161008506        6.76774673301690       -2.40474406731985
H           15.47742713554625        4.17036217646197       -2.29722847051911
H           16.14977254638791        5.78302501532067       -2.48984645468353
H           15.14295776033163        5.09489895464925       -3.75611151369063
H           10.17211417613116        4.61051540729211       -2.84965967434740
43
 energy: -52.664513292345 gnorm: 0.031682234256 xtb: 6.7.1 (edcfbbe)
C            0.74147858078422        2.88544865216156       -0.82097073150283
C            1.93487786993529        2.23666724620633       -0.87898294118042
H           -0.18642459422476        2.36981006529387       -0.99855272967492
H            0.66390586428619        3.93276296866624       -0.59022918503248
C            3.22303524359817        2.76348939545064       -0.66716290001518
H            1.90954395063921        1.17492635091907       -1.11345682244422
C            3.48250656950187        4.13125069364528       -0.35194819048497
C            4.74248937938090        4.59488017352465       -0.14735234320174
C            5.87228501611773        3.74702220778619       -0.19895821718272
C            4.37283747776062        1.92709621456658       -0.74310106133412
C            5.63073593294581        2.38771011951494       -0.51373528759083
H            4.22620582037478        0.87908510536009       -0.98154626970937
H            6.46740483174337        1.69650752322362       -0.56468267423323
H            4.89918615200259        5.64271964403612        0.09546467754274
H            2.64745654532168        4.81206391959880       -0.26798440085351
C            7.21764206039331        4.28822413213985        0.04901277309138
N            8.10090523855673        4.24786881753406       -1.17274222967696
H            7.76642752023136        3.76075148906920        0.85239570147707
H            7.13552741794636        5.34173222291562        0.31706181499536
C            9.04825522067429        5.31696384533569       -1.23653818754188
C            8.81801206312080        2.99702214710543       -1.37205570552911
C           10.30172270718715        3.34500267063802       -1.24957505418457
H            8.59302852324480        2.59549268072643       -2.36518187019561
H            8.50291423776310        2.26058442474641       -0.63178401549669
N           10.32438526157708        4.72203384716243       -1.83045800911820
H           10.96664073885666        2.66956099459265       -1.77802132562504
H           10.60603024172182        3.43547045772666       -0.20708057600004
H            9.33682672955909        5.70330596987942       -0.24303493056703
H            8.69025298158987        6.14495942067084       -1.85195340927118
C           11.61641127384478        5.53102623207696       -1.61151982135349
C           12.82635182620582        4.91467220115529       -2.28151244966444
H           11.74984524685381        5.58133093106324       -0.53232280487573
H           11.42307442245036        6.53081200144279       -1.99506479218827
C           14.07132467268842        5.76845483858321       -2.02666478578580
H           12.65842692414282        4.83514658874744       -3.35591077399456
H           13.00330951036154        3.91392023544795       -1.89016132953038
C           15.30243681127939        5.16496244463728       -2.68683321119638
H           14.23213581030531        5.84679892917310       -0.95214692329306
H           13.90111757662619        6.77308575950894       -2.41097944688800
H           15.49210500513214        4.16989172091352       -2.29849806600878
H           16.17307437564442        5.78028981024146       -2.49475836847136
H           15.16116833090889        5.09358583709619       -3.75998397941935
H           10.16760263096603        4.61727906971581       -2.84051914679007
43
 energy: -52.669111629983 gnorm: 0.053313373589 xtb: 6.7.1 (edcfbbe)
C            0.72260905847200        2.87513528091037       -0.82471774209568
C            1.91334298189967        2.23574437848361       -0.88341609642799
H           -0.20283197304928        2.35651990484998       -0.99439299779756
H            0.64384489652332        3.92519309468254       -0.59754542562110
C            3.20940370425054        2.76491243037451       -0.67489638516114
H            1.88954972281031        1.17163972044544       -1.11279366140300
C            3.47726221779882        4.13177730946541       -0.37786578069454
C            4.74010811641033        4.58595570599726       -0.16086710550948
C            5.86145143980461        3.72639088327785       -0.16932186703020
C            4.35158047077114        1.91814093667313       -0.72617165044035
C            5.61007584364676        2.36996563136276       -0.47052207689063
H            4.18933111407577        0.86985124297497       -0.95890611908117
H            6.44468414831716        1.67458340427138       -0.49047715506684
H            4.91326936859665        5.63597927215117        0.05990449229127
H            2.63362102024472        4.80663679453435       -0.32330238605424
C            7.19164698489314        4.26466997387183        0.09108315787166
N            8.07515399601426        4.25302641134409       -1.15829587636310
H            7.75472039876258        3.71766925675038        0.86657360100690
H            7.11629268522907        5.31478101329479        0.37268199501348
C            8.96698450115956        5.33247532739755       -1.22322837766808
C            8.78175644597108        3.00629561434445       -1.36840533778889
C           10.27446202416944        3.33068100199705       -1.26953404573512
H            8.53873432003085        2.59798942499161       -2.35602261953426
H            8.46466535238369        2.28016258896769       -0.61889423022462
N           10.31301122463383        4.73689887304221       -1.82086861302020
H           10.91948010836596        2.67357382480297       -1.84808845194973
H           10.61337834030988        3.38718225766522       -0.23228597266952
H            9.28282174488468        5.74430064949869       -0.24418112710238
H            8.62154224591172        6.14658106461747       -1.86666205830285
C           11.69152034389565        5.56135200330278       -1.61139300329866
C           12.87907991753013        4.93364564208784       -2.28798404318245
H           11.80718863067699        5.59625155301290       -0.52961101166074
H           11.46640623610348        6.55119310758931       -2.00073970090533
C           14.13412849591363        5.78336019868151       -2.03740664107605
H           12.70813759795136        4.85733569741149       -3.36378117305023
H           13.05076253423930        3.93069763880892       -1.89329446928571
C           15.36003494903836        5.16473521583694       -2.69700836758389
H           14.29274592578695        5.86371655060124       -0.96086767399060
H           13.96670994190071        6.78798163873165       -2.42861673658791
H           15.53666648890080        4.16624575123399       -2.30213261500219
H           16.24038257316954        5.77338938197295       -2.50821415931429
H           15.21335691933871        5.08960488028869       -3.77236158642497
H           10.15540694226221        4.63744746739875       -2.82519890518760
43
 energy: -52.673401925307 gnorm: 0.077598306885 xtb: 6.7.1 (edcfbbe)
C            0.70806210629761        2.86556886030285       -0.82787711847225
C            1.89007189638681        2.23137933146582       -0.88873548955575
H           -0.21665782507326        2.34616626890584       -0.99217950234538
H            0.63053920403211        3.91802693076517       -0.60289372793436
C            3.19864631300987        2.76635981683515       -0.67828006650134
H            1.86813509855937        1.16643352529355       -1.11458787010601
C            3.46591940440215        4.12930218403255       -0.40003152575463
C            4.73370157332274        4.57656855324678       -0.16860343680291
C            5.84194921864407        3.70593241415854       -0.14128704510186
C            4.32643008988012        1.90844174030914       -0.70942413956359
C            5.58765408752014        2.35485596415695       -0.43062303322255
H            4.15310791378263        0.86102299347273       -0.93811390909277
H            6.41829552905426        1.65671749912072       -0.42677188049383
H            4.91895569950955        5.62763867853616        0.03131563382722
H            2.61789788260227        4.80148740907838       -0.37469984023072
C            7.16601958577574        4.23976779981110        0.13592384494066
N            8.03582469136355        4.24919531115545       -1.14077270514938
H            7.73389729038608        3.67407982727711        0.88741961165269
H            7.09779725750722        5.28682065036222        0.43340405806757
C            8.86959447379450        5.34838288534078       -1.21448545613304
C            8.74586625757798        3.01126195329672       -1.36052539094323
C           10.24236894141356        3.32902605125653       -1.28845623468227
H            8.48980728673855        2.60128227188458       -2.34640034621986
H            8.44473103373513        2.28295948365601       -0.60679785837760
N           10.29275958701225        4.75170379999166       -1.81421368226149
H           10.86956888575875        2.68522918527476       -1.90520408370800
H           10.61273832484029        3.35443930945130       -0.25705456578677
H            9.21230598834937        5.78638351899034       -0.25226096986812
H            8.54038200726638        6.14548561997490       -1.89031873014278
C           11.78264048625570        5.59667280719415       -1.61069578893247
C           12.94009809559192        4.95136799617169       -2.29486519276591
H           11.87394631448552        5.61612416569499       -0.52670001260941
H           11.52111788717619        6.57371673485525       -2.00828856087637
C           14.20424600774996        5.79472727142362       -2.04965811136859
H           12.76123797376241        4.87811820976742       -3.37177215653403
H           13.10231142074400        3.94483888754658       -1.89739710643167
C           15.42391846894750        5.16350538346586       -2.70855166970009
H           14.35970931848107        5.87762996286836       -0.97051558211704
H           14.03717113912605        6.79991869914151       -2.44653627125457
H           15.58789357836221        4.16140442018271       -2.30790506717712
H           16.31339949191681        5.76623699374423       -2.52305688256541
H           15.26999878306354        5.08535678052840       -3.78599903136003
H           10.14042123088753        4.66013185001096       -2.81555310634492
43
 energy: -52.678303272399 gnorm: 0.082771643543 xtb: 6.7.1 (edcfbbe)
C            0.70401341171225        2.86152000297481       -0.82927601902649
C            1.87537802286625        2.22406653493204       -0.89327364430813
H           -0.22273462287375        2.34368859141316       -0.99367350570381
H            0.62929340748945        3.91460901146785       -0.60322944149223
C            3.19693693996573        2.76681447662387       -0.67524700490303
H            1.85487172979140        1.16051087640265       -1.11914189827455
C            3.45343848144628        4.12505848540714       -0.40884225383805
C            4.72679157529084        4.57246231273512       -0.16793859066797
C            5.82242680612463        3.69657397276464       -0.13158143909241
C            4.30898957197224        1.90161790812097       -0.69886817337255
C            5.57504428900158        2.34952821304344       -0.41333976417429
H            4.13639071650212        0.85537852147466       -0.92549583481185
H            6.40057812172262        1.65001870094948       -0.40268019894659
H            4.91202505928413        5.62288238320696        0.02264792514792
H            2.61022060323698        4.80155281736250       -0.39719371598181
C            7.15735873271448        4.22618986282159        0.15957879720775
N            8.00166610612838        4.23667240756297       -1.12520272938462
H            7.71309461909872        3.65061965051465        0.90664118773360
H            7.09034595441128        5.27107518513602        0.47102126578765
C            8.81285241164424        5.35622215392201       -1.21645898612393
C            8.72912578421867        3.00798127094465       -1.35235946879603
C           10.22072127668891        3.34653929178451       -1.29703893751628
H            8.47039372311444        2.60542596420752       -2.34263087559891
H            8.45477254074280        2.26316027261211       -0.60311437616439
N           10.26871304800683        4.75848972015761       -1.81486177024146
H           10.84185687469304        2.70158177340677       -1.91777122865817
H           10.60008476375807        3.35834183848192       -0.26829002788006
H            9.15726706273097        5.80834876158551       -0.26407390567323
H            8.49066163571371        6.13775088155587       -1.91364062644145
C           11.83937483148731        5.61949272846360       -1.60738792851069
C           12.97731174351226        4.95984097002880       -2.29769032039522
H           11.91619988060464        5.63184089559047       -0.52339626641698
H           11.55944131835961        6.58791710821176       -2.01123641616180
C           14.24707719973273        5.79569563828476       -2.05799780491881
H           12.79055155374737        4.88765973826046       -3.37540927739734
H           13.13264211694159        3.94968773725299       -1.90073442551209
C           15.46297996641899        5.16081335299576       -2.71640745842630
H           14.40317088248397        5.88117722896459       -0.97710537298679
H           14.08073778608227        6.80268796554279       -2.45650242048858
H           15.62356874829499        4.15693255119111       -2.31391362893844
H           16.35639957574714        5.76177935669653       -2.53228900909357
H           15.30615110644824        5.08202885754836       -3.79537539966581
H           10.12629464294182        4.67943402739440       -2.81924902989218
43
 energy: -52.689236180963 gnorm: 0.099567552866 xtb: 6.7.1 (edcfbbe)
C            0.71105017452158        2.86151676148082       -0.82876125338089
C            1.86184951068526        2.20834287581410       -0.90087444568646
H           -0.22245748066887        2.34734500760482       -0.99906270338233
H            0.63987305523606        3.91308457683638       -0.59986487701425
C            3.20842332916874        2.76831223236563       -0.66526770394196
H            1.84618389317709        1.15022242544774       -1.12766313880409
C            3.43134943098571        4.11621816967192       -0.41331830146287
C            4.71641875458557        4.57288612928967       -0.15950946181013
C            5.78766705740906        3.69304845746732       -0.13306940235310
C            4.28880011230094        1.89381950651719       -0.68667986171792
C            5.56745700001599        2.35191444713218       -0.40670251508884
H            4.13435286142882        0.85009399881636       -0.91092891531537
H            6.38114616516699        1.64926624848826       -0.39987587922390
H            4.88541349947880        5.62093184966679        0.02559254055410
H            2.61139443689597        4.81278131111441       -0.40744273413113
C            7.16861505427637        4.21871666366644        0.16945601716300
N            7.94350107533139        4.20901749166902       -1.09527233013273
H            7.67822627156635        3.63374158131216        0.93521340125349
H            7.09188265259971        5.25868719908678        0.50808491290385
C            8.77586474031106        5.35308956669192       -1.22875398708389
C            8.71558949080729        2.99383604223826       -1.33962716123953
C           10.19140895152945        3.39571160302809       -1.30848062119584
H            8.46120018979906        2.61798958881300       -2.34503192913063
H            8.49700297941737        2.20521351408785       -0.60806228473983
N           10.20970519199080        4.74931584967885       -1.82621687270929
H           10.81231130304917        2.72598207803257       -1.90071512954045
H           10.56958351620177        3.39844308168431       -0.28113237912632
H            9.09714273637505        5.81025151955577       -0.28601482771382
H            8.45699794975748        6.11205198822826       -1.94227719850920
C           11.90788805513363        5.64902240937978       -1.59371466605040
C           13.01604724191558        4.96601583332984       -2.29704793305232
H           11.96231992460769        5.65242658953238       -0.51269280511532
H           11.60608523263890        6.60422181809058       -2.00641935119108
C           14.28750305607015        5.78916194141745       -2.06673435855872
H           12.81040189070542        4.89351348994275       -3.37425539112751
H           13.15885330143006        3.94984845645710       -1.90498934251007
C           15.49718052720447        5.15679458572473       -2.72394932046233
H           14.44632669602037        5.88034903719374       -0.98415267051467
H           14.12046265401256        6.79965575304621       -2.46296886522652
H           15.66003303367008        4.15303594185449       -2.32245504044146
H           16.39043814565727        5.75825257309477       -2.54053491845641
H           15.33939357702017        5.07885851185400       -3.80326863729580
H           10.09359276051387        4.70868129359458       -2.84458765743704
43
 energy: -52.697934881292 gnorm: 0.116548472859 xtb: 6.7.1 (edcfbbe)
C            0.71213619540112        2.86268009293622       -0.83011907988044
C            1.85386901143717        2.19815859809591       -0.90574300041278
H           -0.22583130941857        2.35282714579916       -1.00446156122351
H            0.64276813587968        3.91095626104445       -0.59854568608309
C            3.20783443772004        2.76448987075103       -0.66226845589645
H            1.84419654715669        1.14356983161753       -1.13328275627414
C            3.41378604040710        4.10920217150902       -0.41851402441741
C            4.70262090302512        4.57109606587359       -0.15369496610507
C            5.76227616931213        3.68786559896851       -0.12237435585970
C            4.27575005759887        1.88606987709547       -0.67289405050518
C            5.55910595011330        2.34874897730174       -0.39541261388239
H            4.13609886722166        0.84238026979430       -0.89323883796285
H            6.36765520663404        1.64306831012073       -0.38972547232234
H            4.85863705291133        5.62003032668135        0.02781235597879
H            2.61162028452554        4.82464903822088       -0.42105317792268
C            7.17785543462042        4.21213935340618        0.16601604112817
N            7.90904388072692        4.19408219443821       -1.07155998153414
H            7.65088076050788        3.61785280131097        0.95295985315700
H            7.09152108759314        5.24436680463927        0.52856829799593
C            8.78573397601753        5.33926484532567       -1.24143428799061
C            8.69874356703706        2.98130906807405       -1.33560024768574
C           10.16463274505919        3.42718309396116       -1.32142149819575
H            8.44231631231754        2.62484498947702       -2.34666829919198
H            8.51121476740322        2.17264922732467       -0.61599648857445
N           10.14893321410325        4.74311454053053       -1.83685640234556
H           10.79017973127631        2.74249751163544       -1.89572521238738
H           10.54561943161074        3.43343571716686       -0.29573228015331
H            9.08064630938959        5.80355558419818       -0.30263645214034
H            8.44546084206524        6.08099195064228       -1.95549870431224
C           11.94854012916779        5.67965988906397       -1.57919075327476
C           13.04020349089438        4.98017192112100       -2.28987811197420
H           11.99030121736821        5.66989281207380       -0.50250707179273