15
 energy: -58.462139744434 gnorm: 0.362928516551 xtb: 6.7.1 (edcfbbe)
C           -1.22562000000000        2.17106000000000       -0.58255000000000
C            4.70044000000000        3.14529000000000       -1.63768000000000
F           -1.76095000000000        3.41049000000000       -0.28883000000000
F           -1.27682000000000        1.95996000000000       -1.94693000000000
F           -1.95750000000000        1.19017000000000        0.05901000000000
F            4.44944000000000        4.43828000000000       -2.05456000000000
F            5.90750000000000        3.10592000000000       -0.96642000000000
F            4.75852000000000        2.30923000000000       -2.73607000000000
S            0.50175000000000        2.10478000000000       -0.02589000000000
S            3.37196000000000        2.59800000000000       -0.52932000000000
N            1.71919000000000        2.69827000000000       -1.17907000000000
O            0.72662000000000        2.88866000000000        1.27609000000000
O            0.93448000000000        0.68090000000000        0.35526000000000
O            3.35906000000000        3.37924000000000        0.79330000000000
O            3.56467000000000        1.14615000000000       -0.06594000000000
15
 energy: -58.545761499887 gnorm: 0.238915954820 xtb: 6.7.1 (edcfbbe)
C           -1.17154312670004        2.17801852833342       -0.58593999236480
C            4.64861257284793        3.13456628453976       -1.62233758635224
F           -1.74192844684828        3.37908742842542       -0.30744231792992
F           -1.27721530307246        1.96848785731957       -1.92367473512409
F           -1.92169136919475        1.22839796479394        0.03266906347848
F            4.45109677725937        4.40758297644817       -2.05293421962398
F            5.85128856260815        3.10575691306179       -0.98994198761488
F            4.75110437339906        2.33479027172540       -2.71538029126908
S            0.60156350918690        2.10318001774277       -0.00130706160523
S            3.29249995658661        2.56851850904508       -0.47198834778479
N            1.71820439148417        2.70032676441035       -1.18479082054302
O            0.68881129159076        2.89541215341461        1.26959874866608
O            0.89822418441843        0.67303350801342        0.34065053700052
O            3.38796164721035        3.39916735670371        0.77358005631010
O            3.59575097922379        1.15007346602257       -0.09036104524316
15
 energy: -58.601225330112 gnorm: 0.059867376319 xtb: 6.7.1 (edcfbbe)
C           -1.12818412411345        2.18496851246265       -0.59164223721936
C            4.60501487860905        3.12674116189984       -1.61254907215008
F           -1.71626548196017        3.34880514770685       -0.32383834295764
F           -1.27447276735410        1.97681392091520       -1.89850874354474
F           -1.87677039780916        1.26372189880820        0.01238143320606
F            4.44970302208025        4.37530086373653       -2.04831716663492
F            5.78926715231012        3.10127198630061       -1.00337020405385
F            4.73977324144461        2.35878812011331       -2.69152726519803
S            0.71761503654000        2.09828468780825        0.03416809059140
S            3.20296447053367        2.53220510156437       -0.39906895921370
N            1.73308201918686        2.67691538802953       -1.12421465420698
O            0.66740443230435        2.90629181252855        1.22721370668327
O            0.87707392008963        0.69014916311056        0.29888208680691
O            3.38928618693488        3.41509104005199        0.72591221596722
O            3.59724841120345        1.17105119496356       -0.13512088807559
15
 energy: -58.609706571527 gnorm: 0.032232106566 xtb: 6.7.1 (edcfbbe)
C           -1.08192548963424        2.20194733117428       -0.62017155296378
C            4.54810762966420        3.12613612767623       -1.62356018820758
F           -1.65978109576353        3.37306888203566       -0.35470885842639
F           -1.22208557134086        1.98792525478787       -1.92887432474535
F           -1.82192570916819        1.27934742248676       -0.00467295609420
F            4.38744603273395        4.37698562438705       -2.05627598029439
F            5.72603073468197        3.09388398639434       -0.99987157792469
F            4.67619484716086        2.35357308945703       -2.70211696582196
S            0.75619741855178        2.08601647478517        0.06573782993197
S            3.18246118478326        2.51530984981210       -0.35624671433523
N            1.74774255444957        2.65316857601346       -1.06232997111926
O            0.64707262672136        2.90513858505880        1.23515836371703
O            0.85754511303113        0.67574204154767        0.29531881640534
O            3.40915516628690        3.42929783797771        0.72370899883367
O            3.62050455784181        1.16885891640587       -0.14069491895522
15
 energy: -58.613812383924 gnorm: 0.029386701355 xtb: 6.7.1 (edcfbbe)
C           -1.03527584905607        2.22135321398744       -0.65540578341091
C            4.48765823761113        3.12821111889991       -1.64077295326420
F           -1.59829767326028        3.40958455383509       -0.40669393837792
F           -1.14990193569144        2.00119704076640       -1.97078816271659
F           -1.79395745301018        1.30459164770490       -0.04084796681008
F            4.30705709777383        4.38226052600104       -2.07214081184872
F            5.67661372121526        3.09819726150768       -1.02572279202785
F            4.59463387113431        2.35029044466755       -2.72418154407655
S            0.76228664022301        2.06322598601522        0.10830728085114
S            3.19713476512169        2.50374649447470       -0.31389562764162
N            1.76378487623325        2.62709995519379       -0.99237312423122
O            0.61718627192850        2.88751036327058        1.27068269879111
O            0.83157418449381        0.64730976806311        0.31551677908484
O            3.44830312264828        3.43922550268783        0.74247949235363
O            3.66394012263488        1.16259612292477       -0.12376354667516
15
 energy: -58.616963274110 gnorm: 0.019108309358 xtb: 6.7.1 (edcfbbe)
C           -0.98076443561899        2.24050005125496       -0.68975398075510
C            4.42062544574180        3.12860350851734       -1.65404645691095
F           -1.52345267755596        3.44931145592542       -0.47231551003324
F           -1.05634784528602        2.01416310998098       -2.01066966920372
F           -1.78528110265564        1.34280847098888       -0.09120507783952
F            4.21097456624537        4.38167033439876       -2.08591590592168
F            5.63558427516072        3.11120264006754       -1.07703634760227
F            4.49505221508718        2.34864431481333       -2.74321374516258
S            0.75937168190272        2.03446100845163        0.15554038425625
S            3.22261057902126        2.49462822496798       -0.26898659407401
N            1.77924286155394        2.60243833958692       -0.92223043539119
O            0.59328087541467        2.85672558301874        1.31421381228409
O            0.81347714990721        0.61710623392686        0.34071300059786
O            3.48428488864416        3.44479568213508        0.76860258196178
O            3.70408152243750        1.15934104196558       -0.09329605620586
15
 energy: -58.619219701631 gnorm: 0.017000063796 xtb: 6.7.1 (edcfbbe)
C           -0.92969009631134        2.25635636659901       -0.71685907151229
C            4.36055980588941        3.12683809368333       -1.66123661297144
F           -1.44744094439156        3.48324620077343       -0.53334241079229
F           -0.95806295005734        2.02383036480043       -2.03910489300114
F           -1.79184477149506        1.38556724322780       -0.14614429163239
F            4.11620413799549        4.37413069541918       -2.09216394699965
F            5.60883371376638        3.12979475440698       -1.14308462420913
F            4.39514933335755        2.34417430686864       -2.75108059704853
S            0.75244846396959        2.00835826832534        0.19338672538366
S            3.24765427885318        2.49060271011193       -0.23149890738760
N            1.79237570269507        2.58356756224259       -0.86123210360003
O            0.56800872113905        2.81801605052089        1.35737919695114
O            0.79327172318614        0.58873110075034        0.36137941614225
O            3.52092295897162        3.45128382185253        0.79260930807565
O            3.74434992243172        1.16190246041755       -0.05860718739840
15
 energy: -58.621023925479 gnorm: 0.018838058452 xtb: 6.7.1 (edcfbbe)
C           -0.87785573144705        2.27172775282184       -0.73992640770636
C            4.30166168534340        3.12294726513878       -1.66462679582048
F           -1.36571248667218        3.51368505735794       -0.59025408350287
F           -0.85231082554426        2.02997342441339       -2.05879372679348
F           -1.79867334672634        1.43328694467170       -0.20569433988626
F            4.01757107949576        4.36118444016031       -2.09040622193940
F            5.58260640992913        3.15015972183991       -1.21817542123471
F            4.29011017001568        2.33461865292388       -2.74868873443166
S            0.74729410552838        1.98492831453945        0.22356170029431
S            3.26811181765408        2.48962600871159       -0.19726231513064
N            1.80459343172633        2.56935426170967       -0.80551246852780
O            0.54390178155013        2.77438826055399        1.39805775869264
O            0.77519484924556        0.56350024159807        0.37484664226569
O            3.55465056377270        3.45849532018039        0.81462950811881
O            3.78159649612858        1.16852433337907       -0.02135509439804
15
 energy: -58.622403154898 gnorm: 0.017879823538 xtb: 6.7.1 (edcfbbe)
C           -0.83033989441651        2.28716533700785       -0.75940364444772
C            4.24803620413401        3.11841678286293       -1.66756876521641
F           -1.28328602432641        3.54214063161830       -0.64143843365430
F           -0.74717934578912        2.03189141441160       -2.07074638619916
F           -1.80325988470051        1.48401877049537       -0.26644064537785
F            3.92148472333241        4.34607323233126       -2.08370796370962
F            5.55300229887321        3.17033316530742       -1.29538180957681
F            4.18812005957657        2.32013987450568       -2.73917474312316
S            0.74404822417398        1.96299377091388        0.24752918378876
S            3.28431571752690        2.49144843431645       -0.16602160292835
N            1.81585290204782        2.55862263130261       -0.75431557611326
O            0.52304858853643        2.72666268840277        1.43604256764547
O            0.75776180163522        0.53855464313250        0.37945203901509
O            3.58618790212026        3.46954462273103        0.83343842082817
O            3.81494672727561        1.17839400066034        0.01813735906883
15
 energy: -58.623379942005 gnorm: 0.013595784969 xtb: 6.7.1 (edcfbbe)
C           -0.79213678808066        2.30027269477453       -0.77453284498789
C            4.20512545276492        3.11510840926316       -1.67032959501115
F           -1.20507619393455        3.56930993157095       -0.68756851811012
F           -0.65420526385993        2.02655682343668       -2.07558958070196
F           -1.81016075758898        1.53579534572177       -0.32143328165909
F            3.83757593541689        4.33285093355774       -2.07404513337808
F            5.52344104084275        3.18842953033580       -1.36859468191068
F            4.09889321927349        2.30524343535606       -2.72681320128723
S            0.74289215792622        1.94137960392069        0.26700929976924
S            3.29651802553048        2.49517671037537       -0.13817262079766
N            1.82518488863986        2.55041871656399       -0.70916398532629
O            0.50706201109201        2.68101057742732        1.46856919233522
O            0.74614230321232        0.51510891716631        0.37759188676397
O            3.61029270061651        3.48142429776416        0.84933749514605
O            3.84119126814849        1.18831407276544        0.05413556915532
15
 energy: -58.624053750152 gnorm: 0.010783454796 xtb: 6.7.1 (edcfbbe)
C           -0.76073477557898        2.31170131343749       -0.78781422270768
C            4.17053272404063        3.11178618630233       -1.67267876324269
F           -1.12681816579801        3.59664804852679       -0.72962587183282
F           -0.57373904973427        2.01811141014572       -2.07728794574218
F           -1.82270943141188        1.59016398133298       -0.37478019144050
F            3.76134780451735        4.31968220523175       -2.06634539978347
F            5.49815698669969        3.20757620600450       -1.44379684683706
F            4.01707091786451        2.28757558765544       -2.71211467004734
S            0.74294280185119        1.91728445264635        0.28496040555535
S            3.30775363190954        2.50158395552502       -0.10919095272609
N            1.83371685491519        2.54455693782133       -0.66542109334964
O            0.49645770888737        2.62961892788623        1.50100140073752
O            0.73569441542802        0.48678077961430        0.36473257145772
O            3.63213055460636        3.50263166349995        0.86298993685765
O            3.86093702180311        1.20069834436975        0.09577164310084
15
 energy: -58.624420489007 gnorm: 0.004472034315 xtb: 6.7.1 (edcfbbe)
C           -0.73824857366568        2.31839307731608       -0.79712646427117
C            4.14677389595654        3.10970956361922       -1.67199768720797
F           -1.05826819846031        3.61718278619202       -0.76250281892075
F           -0.51944628375992        2.00166690243358       -2.07389805941832
F           -1.83315756760371        1.64103477235061       -0.41326683675778
F            3.70593847422996        4.30987640314772       -2.05569784377138
F            5.47571426075161        3.22052278329528       -1.50623971497055
F            3.95523237367781        2.27347506483220       -2.69563768703866
S            0.74446429391107        1.89737793138390        0.29604205318411
S            3.31451901903431        2.50885824140650       -0.08625840895725
N            1.83900876976922        2.54348298695861       -0.63404063031125
O            0.48806779235342        2.58995317430563        1.52287632611844
O            0.73737001531339        0.46842028579928        0.34886239344917
O            3.64102824014323        3.51703761028302        0.87418488595220
O            3.87374348834886        1.20940841667627        0.12510049292075
15
 energy: -58.624504750613 gnorm: 0.009583037327 xtb: 6.7.1 (edcfbbe)
C           -0.71826198189184        2.32518401591261       -0.80595054514312
C            4.12575781975560        3.10629939264789       -1.67190234723321
F           -0.99734295438023        3.63547945098461       -0.78687611285731
F           -0.47745327935527        1.99363109702467       -2.07522797408638
F           -1.84802152646763        1.68616693228407       -0.44653650205257
F            3.65844024143452        4.29904485438496       -2.05460358018802
F            5.46133600029085        3.23463301673394       -1.56159552319828
F            3.90228616658686        2.25653614464275       -2.68061949438594
S            0.74619143486038        1.87623308242203        0.30593563259825
S            3.32152706509249        2.51788476896382       -0.06313423326272
N            1.84433046616164        2.54304721018873       -0.60512003677975
O            0.48563137748866        2.54195969963125        1.54658065150034
O            0.73147796715506        0.44166653095630        0.32388459309834
O            3.65487092231934        3.54549614563694        0.88109195823331
O            3.88197028094938        1.22313765758532        0.16447351375664
15
 energy: -58.624563933549 gnorm: 0.008134707034 xtb: 6.7.1 (edcfbbe)
C           -0.72104128723569        2.32392115967033       -0.80395020431964
C            4.12969695683228        3.10567881166983       -1.67002551259682
F           -0.99471695907258        3.63232842559676       -0.78093287382228
F           -0.49186250403452        1.98833680860212       -2.07193456783192
F           -1.84606119200240        1.69119798255710       -0.43951143364762
F            3.66693031941388        4.29845952346263       -2.05352423686149
F            5.45905243474912        3.23136886839163       -1.55843196707091
F            3.91013775295967        2.25443739430729       -2.67546927013828
S            0.74780862935734        1.87546126255718        0.30042625041902
S            3.31868306059486        2.52152671795378       -0.06474251882947
N            1.84256273742157        2.54734220684977       -0.61075639825699
O            0.48941104475248        2.53732935758739        1.54253393434576
O            0.73686244747245        0.44213816040032        0.31257466858591
O            3.64959035217973        3.55072339632334        0.87762524958416
O            3.87568620661162        1.22614992407041        0.16651888044012
15
 energy: -58.624604926716 gnorm: 0.005585203275 xtb: 6.7.1 (edcfbbe)
C           -0.71783365688697        2.32368133606122       -0.80505572514966
C            4.12639048549805        3.10724484986739       -1.66802183966199
F           -0.97838655143727        3.63706580263714       -0.79004887287324
F           -0.49180207773544        1.97765901957756       -2.07263608028430
F           -1.85176547986614        1.70671200149320       -0.43370179058391
F            3.66063350073293        4.29989551359651       -2.04955368520943
F            5.45777505085052        3.23208791514250       -1.56559233082549
F            3.90258653531256        2.25593467917972       -2.67255679545721
S            0.74898812126761        1.87008387439235        0.29901620519929
S            3.31905238719659        2.52325172373660       -0.06179982676652
N            1.84308772952125        2.54620357527354       -0.60948387374630
O            0.48663351614466        2.53144066860928        1.54146808626562
O            0.74217443337772        0.44091786993204        0.31057213570654
O            3.64604408313691        3.54806772781707        0.88047794525938
O            3.87916192288683        1.22615344268376        0.16731644812678
15
 energy: -58.624655062711 gnorm: 0.003747800044 xtb: 6.7.1 (edcfbbe)
C           -0.71577089227537        2.32471935557399       -0.80608956039118
C            4.12489467524558        3.10626299725105       -1.66716295755946
F           -0.96570835780538        3.63957140680024       -0.79212311603116
F           -0.49772309071717        1.97464546177233       -2.07404509617622
F           -1.85344104045667        1.71777733425848       -0.43034277370069
F            3.65731121676361        4.29769128632793       -2.05141479585501
F            5.45814377327948        3.23255960640174       -1.57169804621630
F            3.89559453129463        2.25077412660777       -2.66801034998294
S            0.75037716000639        1.86444214824609        0.29605030328860
S            3.31976138224504        2.52834061469675       -0.05745202200408
N            1.84440291450553        2.54865967019389       -0.60718584675701
O            0.48622964449459        2.51597991617046        1.54407015104405
O            0.74312096880015        0.43396805151858        0.29676571921767
O            3.64682886857183        3.55853933145075        0.88036608108914
O            3.87871824604757        1.23246869272983        0.17867231003418
15
 energy: -58.624782742471 gnorm: 0.009017832232 xtb: 6.7.1 (edcfbbe)
C           -0.71357445558750        2.32803190522604       -0.80489557288700
C            4.12431335703792        3.10443314346995       -1.66337633590933
F           -0.91409243663784        3.65207721038380       -0.79868497873561
F           -0.54236428936036        1.95749861550923       -2.07748361941320
F           -1.86766932927588        1.76744795306006       -0.39532672857614
F            3.65786297895715        4.29212988987667       -2.06179952972664
F            5.45820114910349        3.23189380377386       -1.57564764491470
F            3.88864704391331        2.23450580483639       -2.65014899855269
S            0.75713983104086        1.83713389493061        0.27817690145465
S            3.31784423412535        2.55039892419775       -0.04678691634655
N            1.84567978501025        2.55382082074748       -0.60797525727771
O            0.49409468191564        2.44912325412797        1.54576054806166
O            0.75043898356769        0.40260279511193        0.23411448244704
O            3.64098980054779        3.60450751824033        0.87158948768121
O            3.87522866564194        1.26079446650775        0.22288416269460
15
 energy: -58.624873345719 gnorm: 0.007640846327 xtb: 6.7.1 (edcfbbe)
C           -0.72105827185555        2.32772819137605       -0.80150246972320
C            4.13391186628689        3.10281450925876       -1.65993913077811
F           -0.90816667390807        3.64973108478330       -0.79279910193095
F           -0.59150428341884        1.95239024554123       -2.07995840608419
F           -1.86642274195987        1.78006607698452       -0.35987123836197
F            3.67607835916592        4.29072007797080       -2.06854230459636
F            5.47074097823619        3.22407193076377       -1.56202250354386
F            3.90092272512321        2.22937032021806       -2.64474035219067
S            0.76122666017949        1.82851022973983        0.26102480079428
S            3.31435830565284        2.56260997715444       -0.04578195577732
N            1.84584194168028        2.56049778959626       -0.61772694439422
O            0.49790538381876        2.42310850565217        1.53724823688053
O            0.76090791423256        0.39560639867902        0.19960264549048
O            3.63055637645311        3.62389429429768        0.86574061472005
O            3.86744146031291        1.27528036798391        0.23966810949512
15
 energy: -58.624966649845 gnorm: 0.005555279314 xtb: 6.7.1 (edcfbbe)
C           -0.72850733464835        2.32797883917046       -0.79554061946051
C            4.14293604641276        3.10177148584053       -1.65714574142570
F           -0.89146994088328        3.65353226795419       -0.79176762655498
F           -0.63618167822885        1.94521885620596       -2.07659665069274
F           -1.87141367320671        1.80049237030812       -0.32368052328878
F            3.69284499591964        4.28871323241480       -2.07611165569299
F            5.47754088561305        3.21805003614158       -1.54717684109917
F            3.91579013466207        2.22419835135351       -2.63818692450781
S            0.76571227471611        1.81403694809866        0.24399085824729
S            3.30877715368840        2.57642652902601       -0.04574094687398
N            1.84407268464663        2.56344362336590       -0.62735779922498
O            0.50516046709740        2.38905721109383        1.52897582757866
O            0.77176496504883        0.38334420006349        0.16126553645097
O            3.61432510803314        3.64716278635313        0.85636371175578
O            3.86138791112899        1.29297326260959        0.25910939478858
15
 energy: -58.625071779331 gnorm: 0.004497668245 xtb: 6.7.1 (edcfbbe)
C           -0.73788075446499        2.33040561754958       -0.78643865648874
C            4.15358594622912        3.09831579536778       -1.65448151657851
F           -0.87439556248619        3.65820642932111       -0.78983799004006
F           -0.68139724142801        1.94267584410187       -2.06735307093584
F           -1.87575072576706        1.82463747071514       -0.28491698374319
F            3.71255345287665        4.28265210037393       -2.08874528024527
F            5.48460736785129        3.20928277730152       -1.53007592023014
F            3.93357254155994        2.21364422271061       -2.62959602425283
S            0.77085696427769        1.79492714522670        0.22402389932177
S            3.29941269357698        2.59581147178343       -0.04476096660544
N            1.83971524760497        2.56782925299036       -0.63708445768041
O            0.51726870334047        2.33956338703876        1.52250109452914
O            0.78618795907232        0.36751579423901        0.10683377799812
O            3.58993141788538        3.68172286781154        0.84245565373116
O            3.85447198987131        1.31920982346838        0.28787644121990
15
 energy: -58.625130214392 gnorm: 0.009183628276 xtb: 6.7.1 (edcfbbe)
C           -0.74503782846190        2.33532632280901       -0.77589560868831
C            4.16323384173386        3.09273108526486       -1.64984260198633
F           -0.83546863230388        3.66879903846739       -0.78983086991793
F           -0.73816163047497        1.93231537190422       -2.05551251504162
F           -1.88552496200857        1.87139947748633       -0.23375797014632
F            3.73185202306692        4.27205301832113       -2.10795823158318
F            5.49255746646781        3.19847399741812       -1.51646204643392
F            3.94617249814777        2.19283508959478       -2.61226934081194
S            0.77895604523436        1.76315417923862        0.19547409324978
S            3.28786716280292        2.62741237761561       -0.03772187887403
N            1.83530575839537        2.57734113437676       -0.64604279823972
O            0.53423141111002        2.25414264752608        1.51938791394554
O            0.80414788148593        0.33917653610669        0.01884714134607
O            3.55947561867646        3.73961301936409        0.82396988074299
O            3.84313334612781        1.36162670450596        0.33801483243860
15
 energy: -58.625237589381 gnorm: 0.005010194660 xtb: 6.7.1 (edcfbbe)
C           -0.74536111824707        2.33639137453919       -0.77278798390222
C            4.16384914676601        3.09178373783306       -1.65024584344952
F           -0.84310297739364        3.66847410871134       -0.78356042397211
F           -0.73324059753063        1.93478273030832       -2.05045430154636
F           -1.88484417177265        1.86807604145910       -0.23579308910040
F            3.73579402217880        4.27002628057918       -2.11464729340164
F            5.49390621666111        3.19639943926290       -1.50942423212613
F            3.95094375601318        2.18859258961062       -2.61095471765959
S            0.77837939042461        1.76305544398574        0.19475570915158
S            3.28564991160525        2.63015016355831       -0.03906609614332
N            1.83270288305496        2.57921316038297       -0.64627677920650
O            0.53965425468166        2.24714010925186        1.52132986757222
O            0.79823765746954        0.34199898968305        0.01018800198084
O            3.55891083789661        3.74426516802407        0.81884602785865
O            3.84126078819215        1.36605066280994        0.33849115394419
15
 energy: -58.625365310266 gnorm: 0.002960320175 xtb: 6.7.1 (edcfbbe)
C           -0.74721718203297        2.34070011487237       -0.76413370099164
C            4.16551811967401        3.08783676687841       -1.65175967473319
F           -0.86361144918494        3.67063626383941       -0.76461731889516
F           -0.72046803197388        1.94585817689885       -2.03954976244169
F           -1.88443261824313        1.85788010297001       -0.23956798393365
F            3.74622919434478        4.26194029002482       -2.13497799076669
F            5.49625722945022        3.19140783020005       -1.49145977765502
F            3.96580854692814        2.17508703126952       -2.60719880282516
S            0.77734740948942        1.76089314876199        0.19164906973889
S            3.27945207303719        2.63909734615682       -0.04166542720479
N            1.82629158487580        2.58391331482301       -0.64748700067187
O            0.55636605321957        2.22543398960336        1.52679095839783
O            0.78500864712836        0.34621496187390       -0.01514818690860
O            3.55471731636346        3.75994150514819        0.80548389584062
O            3.83547310692385        1.37955915667894        0.34404170304979
15
 energy: -58.625419001657 gnorm: 0.004097188591 xtb: 6.7.1 (edcfbbe)
C           -0.74966802687586        2.34444272577155       -0.75795517513819
C            4.16759105051903        3.08366255697567       -1.65280911391718
F           -0.87714597836524        3.67379226358360       -0.74807389607516
F           -0.71444598531158        1.95919379313334       -2.03516318814524
F           -1.88546139805279        1.84950442641583       -0.24105307493245
F            3.75277301015229        4.25341218470064       -2.15039313492249
F            5.49764787475586        3.18873872380561       -1.48132256772286
F            3.97712291155689        2.16276541826531       -2.60264371530187
S            0.77752292049879        1.75758533515933        0.18794184293019
S            3.27537199442326        2.64714354425967       -0.04247613046676
N            1.82288732252362        2.58696350905575       -0.64915344904414
O            0.56898625112434        2.20772145134361        1.52991414659040
O            0.77873137066224        0.34596509570688       -0.03512595770386
O            3.54962637968647        3.77458297038422        0.79603404409223
O            3.83120030270257        1.39092600143865        0.35267936975706
15
 energy: -58.625509767750 gnorm: 0.003631375091 xtb: 6.7.1 (edcfbbe)
C           -0.75510410403006        2.35115310775372       -0.74713534168452