
                                 *****************
                                 * O   R   C   A *
                                 *****************

                                            #,                                       
                                            ###                                      
                                            ####                                     
                                            #####                                    
                                            ######                                   
                                           ########,                                 
                                     ,,################,,,,,                         
                               ,,#################################,,                 
                          ,,##########################################,,             
                       ,#########################################, ''#####,          
                    ,#############################################,,   '####,        
                  ,##################################################,,,,####,       
                ,###########''''           ''''###############################       
              ,#####''   ,,,,##########,,,,          '''####'''          '####       
            ,##' ,,,,###########################,,,                        '##       
           ' ,,###''''                  '''############,,,                           
         ,,##''                                '''############,,,,        ,,,,,,###''
      ,#''                                            '''#######################'''  
     '                                                          ''''####''''         
             ,#######,   #######,   ,#######,      ##                                
            ,#'     '#,  ##    ##  ,#'     '#,    #''#        ,####,   ,####,        
            ##       ##  ##   ,#'  ##            #'  '#       #'       #'  '#        
            ##       ##  #######   ##           ,######,      #####,   #    #        
            '#,     ,#'  ##    ##  '#,     ,#' ,#      #,     #,   #   #,  ,#        
             '#######'   ##     ##  '#######'  #'      '#     '####' # '####'        



                #########################################################
                #                        -***-                          #
                #          Department of theory and spectroscopy        #
                #                                                       #
                #                      Frank Neese                      #
                #                                                       #
                #     Directorship, Architecture, Infrastructure        #
                #                    SHARK, DRIVERS                     #
                #        Core code/Algorithms in most modules           #
                #                                                       #
                #        Max Planck Institute fuer Kohlenforschung      #
                #                Kaiser Wilhelm Platz 1                 #
                #                 D-45470 Muelheim/Ruhr                 #
                #                      Germany                          #
                #                                                       #
                #                  All rights reserved                  #
                #                        -***-                          #
                #########################################################


                         Program Version 6.0.1  -  RELEASE   -


 With contributions from (in alphabetic order):
[Max-Planck-Institut fuer Kohlenforschung]                               
  Daniel Aravena         : Magnetic Suceptibility                        
  Michael Atanasov       : Ab Initio Ligand Field Theory (pilot matlab implementation)
  Alexander A. Auer      : GIAO ZORA, VPT2 properties, NMR spectrum      
  Ute Becker             : All parallelization in ORCA, NUMFREQ, NUMCALC 
  Giovanni Bistoni       : ED, misc. LED, open-shell LED, HFLD           
  Martin Brehm           : Molecular dynamics                            
  Dmytro Bykov           : pre 5.0 version of the SCF Hessian            
  Marcos Casanova-Páez   : Triplet and SCS-CIS(D). UHF-(DLPNO)-IP/EA/STEOM-CCSD. UHF-CVS-IP/STEOM-CCSD   
  Vijay G. Chilkuri      : MRCI spin determinant printing, contributions to CSF-ICE 
  Pauline Colinet        : FMM embedding                                 
  Dipayan Datta          : RHF DLPNO-CCSD density                        
  Achintya Kumar Dutta   : EOM-CC, STEOM-CC                              
  Nicolas Foglia         : Exact transition moments, OPA infrastructure, MCD improvements    
  Dmitry Ganyushin       : Spin-Orbit,Spin-Spin,Magnetic field MRCI      
  Miquel Garcia-Rates    : C-PCM and meta-GGA Hessian, CCSD/C-PCM, Gaussian charge scheme 
  Tiago L. C. Gouveia    : GS-ROHF, GS-ROCIS                             
  Yang Guo               : DLPNO-NEVPT2, F12-NEVPT2, CIM, IAO-localization        
  Andreas Hansen         : Spin unrestricted coupled pair/coupled cluster methods 
  Ingolf Harden          : AUTO-CI MPn and infrastructure                
  Benjamin Helmich-Paris : MC-RPA, TRAH-(SCF,CASSCF), AVAS, COSX integrals, SCF dyn. polar. 
  Lee Huntington         : MR-EOM, pCC                                   
  Robert Izsak           : Overlap fitted RIJCOSX, COSX-SCS-MP3, EOM     
  Riya Kayal             : Wick's Theorem for AUTO-CI, AUTO-CI UHF-CCSDT 
  Emily Kempfer          : AUTO-CI, RHF CISDT and CCSDT                  
  Christian Kollmar      : KDIIS, OOCD, Brueckner-CCSD(T), CCSD density, CASPT2, CASPT2-K, improved NEVPT2 
  Axel Koslowski         : Symmetry handling                             
  Simone Kossmann        : meta-GGA functionals, TD-DFT gradient, OOMP2, (MP2 Hessian; deprecated post 5.0) 
  Lucas Lang             : DCDCAS                                        
  Marvin Lechner         : AUTO-CI (C++ implementation), FIC-MRCC        
  Spencer Leger          : CASSCF response                               
  Dagmar Lenk            : GEPOL surface, SMD, ORCA-2-JSON               
  Dimitrios Liakos       : Extrapolation schemes; Compound Job, initial MDCI parallelization 
  Dimitrios Manganas     : Further ROCIS development; embedding schemes. LFT, Crystal Embedding 
  Dimitrios Pantazis     : SARC Basis sets                               
  Anastasios Papadopoulos: AUTO-CI, single reference methods and gradients 
  Taras Petrenko         : pre 6.0 DFT Hessian and TD-DFT gradient, (ASA, deprecated), ECA, 1-Electron XAS/XES, NRVS 
  Peter Pinski           : DLPNO-MP2, DLPNO-MP2 Gradient                 
  Christoph Reimann      : Effective Core Potentials                     
  Marius Retegan         : Local ZFS, SOC                                
  Christoph Riplinger    : Optimizer, TS searches, QM/MM, DLPNO-CCSD(T), (RO)-DLPNO pert. Triples 
  Michael Roemelt        : Original ROCIS implementation                 
  Masaaki Saitow         : Open-shell DLPNO-CCSD energy and density      
  Barbara Sandhoefer     : DKH picture change effects                    
  Kantharuban Sivalingam : CASSCF convergence/infrastructure, NEVPT2 and variants, FIC-MRCI 
  Bernardo de Souza      : ESD, SOC TD-DFT                               
  Georgi L. Stoychev     : AutoAux, RI-MP2 NMR, DLPNO-MP2 response, X2C  
  Van Anh Tran           : RI-MP2 g-tensors                              
  Willem Van den Heuvel  : Paramagnetic NMR                              
  Zikuan Wang            : NOTCH, Electric field optimization            
  Frank Wennmohs         : Technical directorship and infrastructure     
  Hang Xu                : AUTO-CI-Response properties                   
                                                                         
[FACCTs GmbH]                                                            
  Markus Bursch, Miquel Garcia-Rates, Christoph Riplinger, Bernardo de Souza, Georgi L. Stoychev 
                                                                 
  APM, Basis sets (HGBS, AHGBS, def-TZVP (Ac-Lr), def2-XVPD (La-Lu)), CI-OPT, improved COSX, DLPNO-Multilevel,           
  DOCKER, DRACO, updates on ESD, GOAT, IRC, LR-CPCM, MBIS, meta-GGA TD-DFT gradient, ML-optimized integration grids, 
  MM, NACMEs, nearIR, NEB, NEB-TS, NL-DFT gradient (VV10), 2- and 3-layer-ONIOM, interface openCOSMO-RS, QMMM,   
  Crystal-QMMM, SF, symmetry and pop. for TD-DFT, r2SCAN hybrids, SOLVATOR                                   
                                                                         
[Other institutions]                                                     
  V. Asgeirsson          : NEB                                           
  Christoph Bannwarth    : sTDA-DFT, sTD-DFT, PBEh-3c, B97-3c, D3        
  Sebastian Ehlert       : rSCAN, r2SCAN, r2SCAN-3c, D4, dhf basis sets  
  Marvin Friede          : D4 for Fr, Ra, Ac-Lr                          
  Lars Goerigk           : TD-DFT with DH, B97 family of functionals     
  Stefan Grimme          : VdW corrections, initial TS optimization, DFT functionals, gCP, sTDA/sTD-DF 
  Waldemar Hujo          : DFT-NL                                        
  H. Jonsson             : NEB                                           
  Holger Kruse           : gCP                                           
  Marcel Mueller         : wB97X-3c, vDZP basis set                      
  Hagen Neugebauer       : wr2SCAN                                       
  Tobias Risthaus        : range-separated hybrid DFT                    
  Lukas Wittmann         : regularized MP2, r2SCAN double-hybrids, wr2SCAN        
                                                                         
We gratefully acknowledge several colleagues who have allowed us to      
interface, adapt or use parts of their codes:                            
  Ed Valeev, F. Pavosevic, A. Kumar             : LibInt (2-el integral package), F12 methods 
  Garnet Chan, S. Sharma, J. Yang, R. Olivares  : DMRG                   
  Ulf Ekstrom                                   : XCFun DFT Library      
  Mihaly Kallay                                 : mrcc  (arbitrary order and MRCC methods)
  Frank Weinhold                                : gennbo (NPA and NBO analysis)           
  Simon Mueller                                 : openCOSMO-RS                            
  Christopher J. Cramer and Donald G. Truhlar   : smd solvation model                     
  S Lehtola, MJT Oliveira, MAL Marques          : LibXC Library                           
  Liviu Ungur et al                             : ANISO software                          


 Your calculation uses the libint2 library for the computation of 2-el integrals
 For citations please refer to: http://libint.valeyev.net

 Your ORCA version has been built with support for libXC version: 6.2.2
 For citations please refer to: https://libxc.gitlab.io

 This ORCA versions uses:
   CBLAS   interface :  Fast vector & matrix operations
   LAPACKE interface :  Fast linear algebra routines
   SCALAPACK package :  Parallel linear algebra routines
   Shared memory     :  Shared parallel matrices
   BLAS/LAPACK       :  OpenBLAS 0.3.27  USE64BITINT DYNAMIC_ARCH NO_AFFINITY SkylakeX SINGLE_THREADED
        Core in use  :  SkylakeX
   Copyright (c) 2011-2014, The OpenBLAS Project


NOTE: MaxCore=5000 MB was set to SCF,MP2,MDCI,CIPSI,MRCI and CIS
      => If you want to overwrite this, your respective input block should be placed after the MaxCore statement


***************************************
The coordinates will be read from file: xtbopt.xyz
***************************************


Your calculation utilizes the atom-pairwise dispersion correction
based on EEQ partial charges (D4)


================================================================================

----- Orbital basis set information -----
Your calculation utilizes the basis: def2-SVP
   F. Weigend and R. Ahlrichs, Phys. Chem. Chem. Phys. 7, 3297 (2005).

----- AuxJ basis set information -----
Your calculation utilizes the auxiliary basis: def2/J
   F. Weigend, Phys. Chem. Chem. Phys. 8, 1057 (2006).

================================================================================
                                        WARNINGS
                       Please study these warnings very carefully!
================================================================================



WARNING: Found flag for RIJCOSX approximation but no HF exchange needed!
  ===> : RIJCOSX  will be disabled and Split-RI-J is turned on

WARNING: Geometry Optimization
  ===> : Switching off AutoStart
         For restart on a previous wavefunction, please use MOREAD

================================================================================
                                       INPUT FILE
================================================================================
NAME = input.inp
|  1> ! PBE def2-SVP def2/J TightSCF RIJCOSX Opt D4
|  2> 
|  3> 
|  4> %maxcore 5000
|  5> 
|  6> %pal
|  7> nprocs 32
|  8> end
|  9> 
| 10> * xyzfile 0 1 xtbopt.xyz
| 11> 
| 12>                          ****END OF INPUT****
================================================================================

                       *****************************
                       * Geometry Optimization Run *
                       *****************************

Geometry optimization settings:
Update method            Update   .... BFGS
Choice of coordinates    CoordSys .... (2022) Redundant Internals
Initial Hessian          InHess   .... Almloef's Model
Max. no of cycles        MaxIter  .... 972

Convergence Tolerances:
Energy Change            TolE     ....  5.0000e-06 Eh
Max. Gradient            TolMAXG  ....  3.0000e-04 Eh/bohr
RMS Gradient             TolRMSG  ....  1.0000e-04 Eh/bohr
Max. Displacement        TolMAXD  ....  4.0000e-03 bohr
RMS Displacement         TolRMSD  ....  2.0000e-03 bohr
Strict Convergence                .... False

------------------------------------------------------------------------------
                        ORCA OPTIMIZATION COORDINATE SETUP
------------------------------------------------------------------------------

The optimization will be done in redundant internal coordinates (2022)
Making redundant internal coordinates   ...  (2022 redundants) done
Evaluating the initial hessian          ...  (Almloef) done
Evaluating the coordinates              ...  done
Calculating the B-matrix                .... done
Calculating the G-matrix                .... done
Diagonalizing the G-matrix              .... done
Small eigenvalue found = 6.758e-04
Small eigenvalue found = 9.267e-04
Small eigenvalue found = 1.294e-03
Small eigenvalue found = 1.520e-03
Small eigenvalue found = 1.922e-03
Small eigenvalue found = 2.403e-03
Small eigenvalue found = 2.636e-03
Small eigenvalue found = 2.801e-03
Small eigenvalue found = 3.213e-03
Small eigenvalue found = 3.777e-03
Small eigenvalue found = 4.754e-03
Small eigenvalue found = 5.032e-03
Small eigenvalue found = 5.188e-03
Small eigenvalue found = 5.492e-03
Small eigenvalue found = 6.480e-03
Small eigenvalue found = 6.735e-03
Small eigenvalue found = 7.512e-03
Small eigenvalue found = 8.101e-03
Small eigenvalue found = 8.561e-03
Small eigenvalue found = 9.190e-03
Small eigenvalue found = 9.565e-03
Small eigenvalue found = 9.911e-03
Small eigenvalue found = 1.131e-02
Small eigenvalue found = 1.184e-02
Small eigenvalue found = 1.210e-02
Small eigenvalue found = 1.343e-02
Small eigenvalue found = 1.383e-02
Small eigenvalue found = 1.430e-02
Small eigenvalue found = 1.594e-02
Small eigenvalue found = 1.683e-02
Small eigenvalue found = 1.742e-02
Small eigenvalue found = 1.850e-02
Small eigenvalue found = 1.968e-02
Small eigenvalue found = 2.005e-02
Small eigenvalue found = 2.146e-02
Small eigenvalue found = 2.215e-02
Small eigenvalue found = 2.286e-02
Small eigenvalue found = 2.326e-02
Small eigenvalue found = 2.474e-02
Small eigenvalue found = 2.569e-02
Small eigenvalue found = 2.686e-02
Small eigenvalue found = 2.721e-02
Small eigenvalue found = 2.826e-02
Small eigenvalue found = 2.935e-02
The first mode is                       ....  704
The number of degrees of freedom        ....  966

    -----------------------------------------------------------------
                    Redundant Internal Coordinates


    -----------------------------------------------------------------
         Definition                    Initial Value    Approx d2E/dq
    -----------------------------------------------------------------
      1. B(C   1,C   0)                  1.3926         0.618967   
      2. B(C   2,C   1)                  1.3793         0.649948   
      3. B(C   3,C   2)                  1.3924         0.619395   
      4. B(C   4,C   3)                  1.3928         0.618290   
      5. B(C   5,C   0)                  1.3929         0.618119   
      6. B(C   5,C   4)                  1.3797         0.648773   
      7. B(H   6,C   5)                  1.0811         0.372023   
      8. B(H   7,C   4)                  1.0812         0.371973   
      9. B(H   8,C   1)                  1.0802         0.373245   
     10. B(H   9,C   2)                  1.0805         0.372876   
     11. B(C  10,C   3)                  1.4885         0.435023   
     12. B(Cl 11,C  10)                  1.8100         0.299724   
     13. B(H  12,C  10)                  1.0893         0.360999   
     14. B(H  13,C  10)                  1.0890         0.361437   
     15. B(C  15,C  14)                  1.3865         0.632994   
     16. B(C  16,C  14)                  1.3859         0.634219   
     17. B(C  17,C  15)                  1.3903         0.624027   
     18. B(C  18,C  16)                  1.3977         0.607292   
     19. B(C  18,C   0)                  1.4749         0.457396   
     20. B(H  19,C  14)                  1.0823         0.370463   
     21. B(C  20,C  18)                  1.3899         0.625134   
     22. B(C  20,C  17)                  1.3858         0.634473   
     23. B(H  21,C  20)                  1.0820         0.370888   
     24. B(C  22,C  16)                  1.5094         0.402991   
     25. B(C  23,C  22)                  1.5071         0.406306   
     26. B(H  24,C  22)                  1.0898         0.360351   
     27. B(H  25,C  22)                  1.0927         0.356492   
     28. B(C  26,C  23)                  1.3892         0.626623   
     29. B(C  27,C  26)                  1.3792         0.650155   
     30. B(C  28,C  27)                  1.3975         0.607893   
     31. B(C  29,C  28)                  1.4006         0.600935   
     32. B(C  30,C  29)                  1.3855         0.635191   
     33. B(C  30,C  23)                  1.3872         0.631370   
     34. B(H  31,C  26)                  1.0809         0.372276   
     35. B(H  32,H  13)                  4.2828         0.000001   
     36. B(H  32,C  27)                  1.0810         0.372245   
     37. B(H  33,C  30)                  1.0813         0.371763   
     38. B(C  34,C  28)                  1.4676         0.469815   
     39. B(C  35,C  34)                  1.3980         0.606623   
     40. B(C  36,C  35)                  1.3768         0.655736   
     41. B(C  37,C  36)                  1.3961         0.610992   
     42. B(C  38,C  34)                  1.3990         0.604544   
     43. B(C  39,C  37)                  1.3958         0.611622   
     44. B(C  39,C  38)                  1.3775         0.654182   
     45. B(H  40,C  35)                  1.0809         0.372409   
     46. B(H  41,C  36)                  1.0811         0.372008   
     47. B(H  42,C  38)                  1.0807         0.372617   
     48. B(H  43,C  39)                  1.0811         0.372085   
     49. B(C  44,C  37)                  1.4836         0.443080   
     50. B(Cl 45,C   0)                 10.0143         0.000000   
     51. B(Cl 45,C  44)                  1.8215         0.287278   
     52. B(H  46,C  44)                  1.0889         0.361506   
     53. B(H  47,C  44)                  1.0887         0.361805   
     54. B(C  48,C  17)                  1.5032         0.412295   
     55. B(C  49,C  48)                  1.5002         0.416778   
     56. B(H  50,C  48)                  1.0929         0.356259   
     57. B(H  51,C  48)                  1.0981         0.349530   
     58. B(C  52,C  15)                  1.4984         0.419611   
     59. B(C  53,C  49)                  1.3916         0.621147   
     60. B(C  53,C  52)                  1.5000         0.417172   
     61. B(H  54,C  52)                  1.0970         0.350947   
     62. B(H  55,C  52)                  1.0927         0.356607   
     63. B(C  56,C  49)                  1.3878         0.629752   
     64. B(C  57,C  56)                  1.3809         0.646135   
     65. B(C  58,C  53)                  1.3827         0.641762   
     66. B(C  59,C  58)                  1.3935         0.616879   
     67. B(C  59,C  57)                  1.3935         0.616820   
     68. B(H  60,C  58)                  1.0815         0.371562   
     69. B(H  61,C  56)                  1.0815         0.371512   
     70. B(H  62,C  57)                  1.0805         0.372856   
     71. B(C  63,C  59)                  1.4679         0.469359   
     72. B(C  64,C  63)                  1.3943         0.614941   
     73. B(C  65,C  64)                  1.3803         0.647467   
     74. B(C  66,C  65)                  1.3896         0.625618   
     75. B(C  67,C  66)                  1.3901         0.624462   
     76. B(H  68,C  64)                  1.0805         0.372842   
     77. B(H  69,C  65)                  1.0817         0.371252   
     78. B(C  70,C  67)                  1.3792         0.650165   
     79. B(C  70,C  63)                  1.3941         0.615363   
     80. B(H  71,C  67)                  1.0804         0.372969   
     81. B(H  72,C  70)                  1.0798         0.373876   
     82. B(C  73,C  29)                  1.5061         0.407863   
     83. B(C  74,C  73)                  1.5090         0.403571   
     84. B(H  75,C  73)                  1.0926         0.356732   
     85. B(H  76,C  73)                  1.0955         0.352869   
     86. B(C  77,C  74)                  1.3893         0.626508   
     87. B(C  78,C  77)                  1.3796         0.649058   
     88. B(C  79,C  74)                  1.3905         0.623665   
     89. B(C  80,C  79)                  1.3820         0.643455   
     90. B(C  81,C  78)                  1.3937         0.616411   
     91. B(C  81,C  80)                  1.3934         0.617142   
     92. B(H  82,C  77)                  1.0800         0.373521   
     93. B(H  82,H   8)                  2.7259         0.000169   
     94. B(H  83,H  51)                  2.1796         0.001259   
     95. B(H  83,C  78)                  1.0790         0.374968   
     96. B(H  84,C  79)                  1.0819         0.370990   
     97. B(H  85,C  80)                  1.0815         0.371462   
     98. B(C  86,C  81)                  1.4743         0.458318   
     99. B(C  87,C  86)                  1.3943         0.614956   
    100. B(C  88,C  87)                  1.3823         0.642654   
    101. B(C  89,C  86)                  1.3990         0.604439   
    102. B(C  90,C  89)                  1.3888         0.627556   
    103. B(C  91,C  90)                  1.3837         0.639490   
    104. B(C  91,C  88)                  1.3922         0.619780   
    105. B(H  92,C  87)                  1.0822         0.370508   
    106. B(H  92,H  54)                  2.4076         0.000545   
    107. B(H  93,C  90)                  1.0818         0.371164   
    108. B(C  94,C  89)                  1.5101         0.401955   
    109. B(C  95,C  94)                  1.5061         0.407827   
    110. B(H  96,C  94)                  1.0917         0.357793   
    111. B(H  97,C  94)                  1.0889         0.361577   
    112. B(C  98,C  95)                  1.3864         0.633215   
    113. B(C  99,C  98)                  1.3808         0.646167   
    114. B(C 100,C  99)                  1.3932         0.617486   
    115. B(C 101,C 100)                  1.4023         0.597156   
    116. B(C 102,C 101)                  1.3836         0.639611   
    117. B(C 102,C  95)                  1.3898         0.625158   
    118. B(H 103,C  98)                  1.0812         0.371942   
    119. B(H 104,C  99)                  1.0812         0.371901   
    120. B(H 105,C 102)                  1.0814         0.371642   
    121. B(C 106,C 100)                  1.4718         0.462624   
    122. B(C 107,C 106)                  1.3936         0.616561   
    123. B(C 107,C   0)                 13.5599         0.000000   
    124. B(C 107,Cl 45)                 11.9591         0.000000   
    125. B(C 108,C 107)                  1.3794         0.649546   
    126. B(C 109,C 108)                  1.3924         0.619284   
    127. B(C 110,C 109)                  1.3935         0.616869   
    128. B(C 111,C 110)                  1.3767         0.656046   
    129. B(C 111,C 106)                  1.3962         0.610631   
    130. B(H 112,C 107)                  1.0803         0.373110   
    131. B(H 113,C 111)                  1.0806         0.372793   
    132. B(H 114,C 110)                  1.0807         0.372645   
    133. B(H 115,C 108)                  1.0812         0.371931   
    134. B(C 116,C 109)                  1.4875         0.436750   
    135. B(Cl117,C 116)                  1.8139         0.295421   
    136. B(H 118,C 116)                  1.0895         0.360742   
    137. B(H 119,C 116)                  1.0887         0.361782   
    138. B(C 120,C 101)                  1.5091         0.403424   
    139. B(C 121,C 120)                  1.5042         0.410645   
    140. B(H 122,C 120)                  1.0930         0.356175   
    141. B(H 123,C 120)                  1.0944         0.354345   
    142. B(C 124,C 121)                  1.3902         0.624421   
    143. B(C 125,C 124)                  1.3793         0.649821   
    144. B(C 126,C 125)                  1.3929         0.618275   
    145. B(C 127,C 121)                  1.3878         0.629821   
    146. B(C 128,C 127)                  1.3804         0.647142   
    147. B(C 128,C 126)                  1.3910         0.622428   
    148. B(H 129,H  85)                  4.5550         0.000000   
    149. B(H 129,C 124)                  1.0814         0.371620   
    150. B(H 130,C 125)                  1.0807         0.372573   
    151. B(H 131,Cl117)                  4.8312         0.000001   
    152. B(H 131,C 127)                  1.0813         0.371734   
    153. B(H 132,C 128)                  1.0801         0.373501   
    154. B(C 133,C 126)                  1.4676         0.469776   
    155. B(C 134,C 133)                  1.3917         0.620826   
    156. B(C 135,C 134)                  1.3824         0.642374   
    157. B(C 136,C 133)                  1.3909         0.622701   
    158. B(C 137,C 136)                  1.3819         0.643736   
    159. B(C 138,C 137)                  1.3867         0.632513   
    160. B(C 138,C 135)                  1.3925         0.619065   
    161. B(H 139,H 114)                  2.6303         0.000240   
    162. B(H 139,C 134)                  1.0810         0.372161   
    163. B(H 140,C 136)                  1.0805         0.372935   
    164. B(H 141,C 137)                  1.0816         0.371448   
    165. B(C 142,C 135)                  1.5023         0.413541   
    166. B(C 143,C 142)                  1.5005         0.416394   
    167. B(C 144,C 143)                  1.3929         0.618132   
    168. B(C 145,C 144)                  1.5021         0.413924   
    169. B(C 145,C 138)                  1.5018         0.414389   
    170. B(H 146,C 145)                  1.0988         0.348703   
    171. B(H 147,C 145)                  1.0920         0.357431   
    172. B(H 148,C 142)                  1.0920         0.357445   
    173. B(H 149,C 142)                  1.0990         0.348429   
    174. B(C 150,C 143)                  1.3847         0.637082   
    175. B(C 151,C 144)                  1.3815         0.644563   
    176. B(C 152,C 151)                  1.3943         0.614983   
    177. B(C 153,C 152)                  1.3991         0.604161   
    178. B(C 153,C 150)                  1.3875         0.630465   
    179. B(H 154,C 150)                  1.0819         0.370931   
    180. B(H 155,C 151)                  1.0819         0.370963   
    181. B(H 155,C 107)                 11.6020         0.000000   
    182. B(H 155,Cl 45)                 23.1920         0.000000   
    183. B(H 155,C   0)                 22.5655         0.000000   
    184. B(C 156,C 152)                  1.4723         0.461819   
    185. B(C 157,C 156)                  1.3967         0.609651   
    186. B(C 158,C 157)                  1.3778         0.653334   
    187. B(C 159,C 156)                  1.3969         0.609151   
    188. B(C 160,C 159)                  1.3783         0.652331   
    189. B(C 161,C 160)                  1.3948         0.613921   
    190. B(C 161,C 158)                  1.3957         0.611957   
    191. B(H 162,C 157)                  1.0810         0.372162   
    192. B(H 163,C 158)                  1.0810         0.372225   
    193. B(H 164,C 159)                  1.0811         0.372061   
    194. B(H 165,C 160)                  1.0811         0.372049   
    195. B(C 166,C 161)                  1.4846         0.441414   
    196. B(Cl167,C 166)                  1.8193         0.289592   
    197. B(H 168,C 166)                  1.0889         0.361588   
    198. B(H 169,C 166)                  1.0889         0.361595   
    199. B(C 170,C 153)                  1.5082         0.404684   
    200. B(C 171,C  88)                  1.5010         0.415537   
    201. B(C 172,C  91)                  1.5008         0.415840   
    202. B(C 173,C 172)                  1.5028         0.412880   
    203. B(H 174,C 172)                  1.0981         0.349581   
    204. B(H 174,H  72)                  2.3741         0.000616   
    205. B(H 175,C 172)                  1.0922         0.357204   
    206. B(C 176,C 173)                  1.3910         0.622457   
    207. B(C 176,C 171)                  1.5010         0.415628   
    208. B(H 177,C 171)                  1.0926         0.356696   
    209. B(H 178,C 171)                  1.0962         0.352041   
    210. B(H 178,H  62)                  4.1172         0.000001   
    211. B(C 179,C 176)                  1.3856         0.634989   
    212. B(C 180,C 173)                  1.3859         0.634273   
    213. B(C 181,C 180)                  1.3892         0.626591   
    214. B(C 181,H 155)                 10.8277         0.000000   
    215. B(C 181,C 107)                 10.2490         0.000000   
    216. B(C 181,Cl 45)                 18.6856         0.000000   
    217. B(C 181,C   0)                 13.8607         0.000000   
    218. B(C 182,C 181)                  1.3967         0.609713   
    219. B(C 182,C 179)                  1.3870         0.631674   
    220. B(H 183,C 179)                  1.0822         0.370604   
    221. B(H 184,C 180)                  1.0820         0.370800   
    222. B(C 185,C 181)                  1.4793         0.450039   
    223. B(C 186,C 185)                  1.3896         0.625633   
    224. B(C 187,C 185)                  1.3905         0.623746   
    225. B(C 188,C 187)                  1.3825         0.642139   
    226. B(C 189,C 188)                  1.3894         0.626254   
    227. B(C 190,C 189)                  1.3908         0.622999   
    228. B(C 190,C 186)                  1.3831         0.640737   
    229. B(H 191,C 190)                  1.0816         0.371439   
    230. B(H 192,C 186)                  1.0807         0.372612   
    231. B(H 192,H  71)                  3.4375         0.000012   
    232. B(H 193,C 187)                  1.0814         0.371652   
    233. B(H 193,H 130)                  4.6239         0.000000   
    234. B(H 194,C 188)                  1.0803         0.373195   
    235. B(H 194,H 148)                  4.8039         0.000000   
    236. B(C 195,C 189)                  1.5142         0.395893   
    237. B(C 198,C 197)                  1.3897         0.625593   
    238. B(C 198,C 196)                  1.3852         0.635978   
    239. B(C 198,C 170)                  1.5070         0.406512   
    240. B(H 199,C 170)                  1.0926         0.356691   
    241. B(H 200,C 170)                  1.0903         0.359676   
    242. B(C 201,C 196)                  1.3914         0.621501   
    243. B(C 201,C 195)                  1.5034         0.411979   
    244. B(C 202,C 201)                  1.3992         0.603990   
    245. B(C 203,C 202)                  1.3977         0.607365   
    246. B(C 203,C 197)                  1.3771         0.655110   
    247. B(H 204,C 197)                  1.0794         0.374418   
    248. B(H 204,Cl167)                  4.9586         0.000001   
    249. B(H 205,C 203)                  1.0805         0.372821   
    250. B(H 206,C 196)                  1.0826         0.370075   
    251. B(H 207,C 195)                  1.0923         0.357057   
    252. B(H 208,C 195)                  1.0958         0.352514   
    253. B(C 209,C 202)                  1.4738         0.459293   
    254. B(C 210,C 209)                  1.3920         0.620197   
    255. B(C 211,C 210)                  1.3855         0.635243   
    256. B(C 212,C 211)                  1.3864         0.633214   
    257. B(C 213,C 212)                  1.3927         0.618587   
    258. B(C 214,C 213)                  1.3802         0.647647   
    259. B(C 214,C 209)                  1.3957         0.611961   
    260. B(H 215,C 210)                  1.0792         0.374701   
    261. B(H 216,C 211)                  1.0812         0.371946   
    262. B(H 217,C 214)                  1.0808         0.372540   
    263. B(C 218,C  66)                  1.5070         0.406480   
    264. B(C 219,C 218)                  1.5053         0.409036   
    265. B(H 220,C 218)                  1.0949         0.353682   
    266. B(H 221,C 218)                  1.0928         0.356432   
    267. B(C 222,C 219)                  1.3963         0.610404   
    268. B(C 223,C 222)                  1.3921         0.619966   
    269. B(C 224,C 223)                  1.3818         0.643808   
    270. B(C 225,C 219)                  1.3866         0.632722   
    271. B(C 226,C 225)                  1.3858         0.634457   
    272. B(C 226,C 224)                  1.3878         0.629763   
    273. B(H 227,C 225)                  1.0808         0.372442   
    274. B(H 228,C 223)                  1.0806         0.372732   
    275. B(H 228,H 216)                  2.4247         0.000512   
    276. B(H 229,C 224)                  1.0802         0.373352   
    277. B(H 229,H 207)                  4.4429         0.000000   
    278. B(C 230,C 226)                  1.5080         0.405048   
    279. B(C 230,C 182)                  1.5090         0.403553   
    280. B(H 231,C 230)                  1.0922         0.357169   
    281. B(H 232,C 230)                  1.0900         0.360156   
    282. B(C 233,C 222)                  1.4754         0.456481   
    283. B(C 234,C 233)                  1.3937         0.616394   
    284. B(C 235,C 234)                  1.3801         0.647861   
    285. B(C 236,C 235)                  1.3900         0.624750   
    286. B(C 237,C 236)                  1.3878         0.629850   
    287. B(C 238,C 237)                  1.3831         0.640866   
    288. B(C 238,C 233)                  1.3896         0.625703   
    289. B(H 239,C 234)                  1.0807         0.372615   
    290. B(H 240,C 235)                  1.0809         0.372408   
    291. B(H 241,C 237)                  1.0815         0.371493   
    292. B(H 242,C 238)                  1.0812         0.371905   
    293. B(C 243,H 155)                 18.9732         0.000000   
    294. B(C 243,Cl 45)                 26.9281         0.000000   
    295. B(C 243,C   0)                 18.9542         0.000000   
    296. B(C 243,C 181)                 10.4532         0.000000   
    297. B(C 243,C 107)                 20.5600         0.000000   
    298. B(C 243,C 236)                  1.5053         0.409062   
    299. B(C 244,C 243)                  1.5091         0.403368   
    300. B(H 245,C 243)                  1.0924         0.356996   
    301. B(H 246,C 243)                  1.0897         0.360433   
    302. B(C 247,C 244)                  1.3885         0.628296   
    303. B(C 248,C 247)                  1.3812         0.645302   
    304. B(C 249,C 248)                  1.3951         0.613121   
    305. B(C 250,C 249)                  1.3802         0.647812   
    306. B(C 251,C 250)                  1.3954         0.612474   
    307. B(C 251,C 244)                  1.3967         0.609528   
    308. B(C 252,C 251)                  1.4722         0.461884   
    309. B(H 253,C 250)                  1.0818         0.371119   
    310. B(H 254,C 247)                  1.0813         0.371754   
    311. B(C 255,C 252)                  1.3962         0.610677   
    312. B(C 256,C 255)                  1.3785         0.651717   
    313. B(C 257,C 256)                  1.3943         0.614950   
    314. B(C 258,C 257)                  1.3940         0.615625   
    315. B(C 259,C 258)                  1.3790         0.650617   
    316. B(C 259,C 252)                  1.3950         0.613500   
    317. B(H 260,C 255)                  1.0809         0.372309   
    318. B(H 261,C 256)                  1.0810         0.372264   
    319. B(H 262,C 258)                  1.0809         0.372341   
    320. B(H 263,C 259)                  1.0809         0.372301   
    321. B(C 264,C 257)                  1.4866         0.438161   
    322. B(Cl265,C 264)                  1.8153         0.293941   
    323. B(H 266,C 264)                  1.0889         0.361564   
    324. B(H 267,C 264)                  1.0891         0.361349   
    325. B(C 268,C 249)                  1.5037         0.411464   
    326. B(C 269,C 268)                  1.5030         0.412487   
    327. B(H 270,C 268)                  1.0912         0.358481   
    328. B(H 271,C 268)                  1.0982         0.349371   
    329. B(C 272,C 269)                  1.3958         0.611604   
    330. B(C 273,C 272)                  1.5027         0.412981   
    331. B(C 273,C 248)                  1.5000         0.417041   
    332. B(H 274,C 273)                  1.0910         0.358829   
    333. B(H 275,C 273)                  1.0977         0.350088   
    334. B(C 276,C 269)                  1.3868         0.632226   
    335. B(C 277,C 276)                  1.3808         0.646390   
    336. B(C 278,C 277)                  1.3986         0.605403   
    337. B(C 279,C 278)                  1.3999         0.602422   
    338. B(C 279,C 272)                  1.3777         0.653571   
    339. B(H 280,C 279)                  1.0804         0.373070   
    340. B(H 281,C 277)                  1.0800         0.373642   
    341. B(H 282,C 276)                  1.0819         0.371013   
    342. B(C 283,C 278)                  1.4582         0.486362   
    343. B(C 284,C 243)                 10.0119         0.000000   
    344. B(C 284,H 155)                 23.0330         0.000000   
    345. B(C 284,C 107)                 27.4818         0.000000   
    346. B(C 284,Cl 45)                 35.5254         0.000000   
    347. B(C 284,C   0)                 27.9939         0.000000   
    348. B(C 284,C 181)                 17.8579         0.000000   
    349. B(C 284,C 283)                  1.3994         0.603628   
    350. B(C 285,C 284)                  1.3757         0.658419   
    351. B(C 286,C 283)                  1.4002         0.601914   
    352. B(C 287,C 286)                  1.3788         0.651085   
    353. B(C 288,C 287)                  1.4052         0.590948   
    354. B(C 288,C 285)                  1.3961         0.610874   
    355. B(H 289,C 285)                  1.0818         0.371086   
    356. B(H 290,C 284)                  1.0797         0.374001   
    357. B(H 291,C 286)                  1.0786         0.375449   
    358. B(C 292,C 288)                  1.4831         0.443861   
    359. B(Cl293,C 292)                  1.8239         0.284799   
    360. B(H 294,C 292)                  1.0888         0.361750   
    361. B(H 295,C 292)                  1.0889         0.361608   
    362. B(C 296,C 287)                  1.5125         0.398345   
    363. B(C 297,C 296)                  1.5006         0.416129   
    364. B(H 298,C 296)                  1.0955         0.352863   
    365. B(H 299,C 296)                  1.0935         0.355437   
    366. B(C 300,C 297)                  1.3909         0.622794   
    367. B(C 301,C 300)                  1.3814         0.644757   
    368. B(C 302,C 301)                  1.3934         0.616979   
    369. B(C 303,C 302)                  1.3942         0.615298   
    370. B(C 304,C 303)                  1.3806         0.646685   
    371. B(C 304,C 297)                  1.3894         0.626177   
    372. B(H 305,C 300)                  1.0816         0.371365   
    373. B(C 306,C 302)                  1.4694         0.466761   
    374. B(C 307,C 306)                  1.3939         0.615897   
    375. B(C 308,C 306)                  1.3936         0.616583   
    376. B(C 309,C 307)                  1.3857         0.634860   
    377. B(C 310,C 284)                 11.1646         0.000000   
    378. B(C 310,C 243)                 10.4985         0.000000   
    379. B(C 310,H 155)                 12.6821         0.000000   
    380. B(C 310,C 107)                 20.0277         0.000000   
    381. B(C 310,Cl 45)                 30.0044         0.000000   
    382. B(C 310,C   0)                 24.8644         0.000000   
    383. B(C 310,C 181)                 11.4392         0.000000   
    384. B(C 310,C 309)                  1.3936         0.616511   
    385. B(C 311,C 310)                  1.3857         0.634698   
    386. B(C 311,C 308)                  1.3795         0.649351   
    387. B(H 312,H 274)                  4.0137         0.000001   
    388. B(H 312,C 307)                  1.0814         0.371656   
    389. B(H 313,C 308)                  1.0801         0.373500   
    390. B(H 314,C 311)                  1.0812         0.371979   
    391. B(C 315,C 310)                  1.4989         0.418858   
    392. B(C 315,C 213)                  1.5002         0.416779   
    393. B(H 316,C 315)                  1.0914         0.358300   
    394. B(H 317,C 315)                  1.0985         0.348979   
    395. B(C 318,C 309)                  1.5066         0.407077   
    396. B(C 318,C 212)                  1.5046         0.410084   
    397. B(H 319,C 318)                  1.0986         0.348839   
    398. B(H 320,C 318)                  1.0919         0.357646   
    399. B(H 321,C 304)                  1.0810         0.372167   
    400. B(H 322,C 303)                  1.0805         0.372855   
    401. B(H 323,C 301)                  1.0809         0.372333   
    402. A(C   1,C   0,C   5)          118.6966         0.433699   
    403. A(C   5,C   0,C  18)          121.6547         0.410888   
    404. A(C   1,C   0,C  18)          119.6487         0.410988   
    405. A(C   2,C   1,H   8)          120.0198         0.357915   
    406. A(C   0,C   1,C   2)          120.7461         0.437639   
    407. A(C   0,C   1,H   8)          119.2233         0.354959   
    408. A(C   3,C   2,H   9)          119.5684         0.354941   
    409. A(C   1,C   2,C   3)          120.5034         0.437693   
    410. A(C   1,C   2,H   9)          119.9259         0.357855   
    411. A(C   2,C   3,C  10)          120.6556         0.407403   
    412. A(C   4,C   3,C  10)          120.5077         0.407275   
    413. A(C   2,C   3,C   4)          118.8120         0.433774   
    414. A(C   3,C   4,H   7)          119.4187         0.354688   
    415. A(C   5,C   4,H   7)          119.9648         0.357597   
    416. A(C   3,C   4,C   5)          120.6165         0.437409   
    417. A(C   0,C   5,H   6)          119.4502         0.354679   
    418. A(C   0,C   5,C   4)          120.5885         0.437388   
    419. A(C   4,C   5,H   6)          119.9569         0.357606   
    420. A(C   3,C  10,Cl 11)          110.0555         0.374747   
    421. A(Cl 11,C  10,H  13)          105.7523         0.325988   
    422. A(H  12,C  10,H  13)          110.5581         0.291123   
    423. A(C   3,C  10,H  12)          112.3396         0.332708   
    424. A(C   3,C  10,H  13)          112.1830         0.332775   
    425. A(Cl 11,C  10,H  12)          105.5320         0.325923   
    426. A(C  15,C  14,H  19)          118.8276         0.355859   
    427. A(C  16,C  14,H  19)          119.2112         0.355976   
    428. A(C  15,C  14,C  16)          121.9421         0.437474   
    429. A(C  14,C  15,C  17)          119.5425         0.436198   
    430. A(C  17,C  15,C  52)          119.5695         0.405347   
    431. A(C  14,C  15,C  52)          120.8220         0.406371   
    432. A(C  14,C  16,C  22)          120.0431         0.403618   
    433. A(C  18,C  16,C  22)          121.0409         0.400544   
    434. A(C  14,C  16,C  18)          118.4565         0.434220   
    435. A(C  15,C  17,C  20)          118.8695         0.436382   
    436. A(C  15,C  17,C  48)          119.8442         0.404091   
    437. A(C  20,C  17,C  48)          121.2678         0.405277   
    438. A(C  16,C  18,C  20)          119.5278         0.433094   
    439. A(C   0,C  18,C  20)          119.1668         0.411711   
    440. A(C   0,C  18,C  16)          121.2540         0.409603   
    441. A(C  17,C  20,C  18)          121.6195         0.436521   
    442. A(C  18,C  20,H  21)          118.6752         0.355174   
    443. A(C  17,C  20,H  21)          119.6981         0.356069   
    444. A(C  16,C  22,C  23)          106.7067         0.373455   
    445. A(C  16,C  22,H  25)          109.4995         0.327846   
    446. A(C  23,C  22,H  24)          109.9229         0.328873   
    447. A(C  16,C  22,H  24)          111.5913         0.328428   
    448. A(C  23,C  22,H  25)          110.4440         0.328289   
    449. A(H  24,C  22,H  25)          108.6729         0.290412   
    450. A(C  26,C  23,C  30)          118.2909         0.436322   
    451. A(C  22,C  23,C  30)          119.0064         0.403881   
    452. A(C  22,C  23,C  26)          122.4924         0.403344   
    453. A(C  27,C  26,H  31)          119.8354         0.357776   
    454. A(C  23,C  26,H  31)          120.0838         0.355543   
    455. A(C  23,C  26,C  27)          120.0640         0.438635   
    456. A(C  28,C  27,H  32)          118.6991         0.353714   
    457. A(C  26,C  27,C  28)          121.6214         0.436242   
    458. A(C  26,C  27,H  32)          119.5838         0.357771   
    459. A(C  27,C  28,C  34)          118.5893         0.411625   
    460. A(C  27,C  28,C  29)          118.4058         0.430109   
    461. A(C  29,C  28,C  34)          122.9985         0.410785   
    462. A(C  30,C  29,C  73)          117.3287         0.404585   
    463. A(C  28,C  29,C  30)          119.0280         0.433518   
    464. A(C  28,C  29,C  73)          123.6394         0.400649   
    465. A(C  29,C  30,H  33)          118.5408         0.356280   
    466. A(C  23,C  30,C  29)          122.3456         0.437392   
    467. A(C  23,C  30,H  33)          119.0424         0.355915   
    468. A(C  28,C  34,C  38)          121.4118         0.411222   
    469. A(C  28,C  34,C  35)          120.3563         0.411472   
    470. A(C  35,C  34,C  38)          118.1866         0.430410   
    471. A(C  34,C  35,C  36)          120.9510         0.436750   
    472. A(C  36,C  35,H  40)          119.9649         0.358319   
    473. A(C  34,C  35,H  40)          119.0736         0.353615   
    474. A(C  35,C  36,C  37)          120.7203         0.437315   
    475. A(C  37,C  36,H  41)          119.2773         0.353980   
    476. A(C  35,C  36,H  41)          120.0023         0.358253   
    477. A(C  39,C  37,C  44)          120.8249         0.407816   
    478. A(C  36,C  37,C  39)          118.4854         0.431867   
    479. A(C  36,C  37,C  44)          120.6507         0.407742   
    480. A(C  34,C  38,H  42)          119.4847         0.353443   
    481. A(C  39,C  38,H  42)          119.6722         0.358208   
    482. A(C  34,C  38,C  39)          120.8188         0.436293   
    483. A(C  37,C  39,H  43)          119.3757         0.354054   
    484. A(C  38,C  39,H  43)          119.8185         0.358121   
    485. A(C  37,C  39,C  38)          120.8056         0.437209   
    486. A(Cl 45,C  44,H  47)          105.2189         0.323778   
    487. A(H  46,C  44,H  47)          110.7025         0.291234   
    488. A(C  37,C  44,H  47)          112.4820         0.333846   
    489. A(Cl 45,C  44,H  46)          105.0288         0.323734   
    490. A(C  37,C  44,Cl 45)          110.3568         0.373196   
    491. A(C  37,C  44,H  46)          112.5367         0.333801   
    492. A(C  49,C  48,H  50)          110.5062         0.329636   
    493. A(H  50,C  48,H  51)          107.1058         0.288997   
    494. A(C  17,C  48,C  49)          112.5146         0.376580   
    495. A(C  17,C  48,H  50)          110.2054         0.329047   
    496. A(C  49,C  48,H  51)          107.2241         0.328599   
    497. A(C  17,C  48,H  51)          109.0846         0.328013   
    498. A(C  48,C  49,C  53)          119.6552         0.404532   
    499. A(C  53,C  49,C  56)          119.0524         0.435432   
    500. A(C  48,C  49,C  56)          121.2583         0.405516   
    501. A(C  15,C  52,H  54)          107.6601         0.329187   
    502. A(H  54,C  52,H  55)          107.3639         0.289224   
    503. A(C  53,C  52,H  55)          110.4337         0.329740   
    504. A(C  53,C  52,H  54)          108.1620         0.328870   
    505. A(C  15,C  52,H  55)          110.6408         0.330058   
    506. A(C  15,C  52,C  53)          112.3799         0.377789   
    507. A(C  49,C  53,C  58)          119.7093         0.436916   
    508. A(C  49,C  53,C  52)          119.7597         0.404600   
    509. A(C  52,C  53,C  58)          120.5025         0.406941   
    510. A(C  57,C  56,H  61)          119.6235         0.357275   
    511. A(C  49,C  56,C  57)          121.0026         0.438538   
    512. A(C  49,C  56,H  61)          119.3655         0.355720   
    513. A(C  59,C  57,H  62)          119.7079         0.354687   
    514. A(C  56,C  57,H  62)          119.8223         0.357494   
    515. A(C  56,C  57,C  59)          120.4641         0.436901   
    516. A(C  59,C  58,H  60)          119.4652         0.354484   
    517. A(C  53,C  58,H  60)          118.8990         0.356871   
    518. A(C  53,C  58,C  59)          121.5776         0.436374   
    519. A(C  58,C  59,C  63)          119.7808         0.412627   
    520. A(C  57,C  59,C  63)          121.9586         0.412620   
    521. A(C  57,C  59,C  58)          118.1262         0.433271   
    522. A(C  59,C  63,C  70)          120.5617         0.412447   
    523. A(C  64,C  63,C  70)          117.9488         0.432842   
    524. A(C  59,C  63,C  64)          121.3467         0.412397   
    525. A(C  63,C  64,C  65)          120.8252         0.436823   
    526. A(C  65,C  64,H  68)          119.5674         0.357617   
    527. A(C  63,C  64,H  68)          119.6075         0.354501   
    528. A(C  64,C  65,H  69)          119.5366         0.357357   
    529. A(C  66,C  65,H  69)          119.4384         0.355280   
    530. A(C  64,C  65,C  66)          121.0183         0.438180   
    531. A(C  65,C  66,C  67)          118.2146         0.435333   
    532. A(C  67,C  66,C 218)          121.1632         0.403129   
    533. A(C  65,C  66,C 218)          120.6114         0.403260   
    534. A(C  70,C  67,H  71)          119.2969         0.357890   
    535. A(C  66,C  67,H  71)          119.7808         0.355447   
    536. A(C  66,C  67,C  70)          120.8859         0.438363   
    537. A(C  67,C  70,H  72)          119.1018         0.358038   
    538. A(C  63,C  70,H  72)          119.8465         0.354709   
    539. A(C  63,C  70,C  67)          121.0038         0.437204   
    540. A(C  29,C  73,C  74)          111.6371         0.373794   
    541. A(C  74,C  73,H  76)          108.3573         0.327372   
    542. A(H  75,C  73,H  76)          106.9989         0.289488   
    543. A(C  74,C  73,H  75)          110.0663         0.327960   
    544. A(C  29,C  73,H  76)          108.8580         0.327943   
    545. A(C  29,C  73,H  75)          110.7732         0.328533   
    546. A(C  73,C  74,C  79)          120.6810         0.402528   
    547. A(C  77,C  74,C  79)          118.0170         0.435344   
    548. A(C  73,C  74,C  77)          121.2792         0.402851   
    549. A(C  78,C  77,H  82)          119.1011         0.357877   
    550. A(C  74,C  77,H  82)          119.8560         0.355733   
    551. A(C  74,C  77,C  78)          121.0090         0.438487   
    552. A(C  81,C  78,H  83)          120.1291         0.354987   
    553. A(C  77,C  78,C  81)          121.1209         0.437204   
    554. A(C  77,C  78,H  83)          118.7077         0.358112   
    555. A(C  80,C  79,H  84)          119.4667         0.356937   
    556. A(C  74,C  79,H  84)          119.4345         0.355049   
    557. A(C  74,C  79,C  80)          121.0944         0.437443   
    558. A(C  81,C  80,H  85)          119.3336         0.354493   
    559. A(C  79,C  80,H  85)          119.7615         0.357014   
    560. A(C  79,C  80,C  81)          120.9047         0.436615   
    561. A(C  80,C  81,C  86)          120.9565         0.410919   
    562. A(C  78,C  81,C  86)          121.1322         0.410833   
    563. A(C  78,C  81,C  80)          117.8114         0.433253   
    564. A(C  87,C  86,C  89)          118.6324         0.431453   
    565. A(C  81,C  86,C  89)          123.1679         0.409407   
    566. A(C  81,C  86,C  87)          118.1751         0.410661   
    567. A(C  88,C  87,H  92)          119.0268         0.356783   
    568. A(C  86,C  87,H  92)          118.8589         0.354126   
    569. A(C  86,C  87,C  88)          122.1055         0.436238   
    570. A(C  87,C  88,C  91)          119.0482         0.436852   
    571. A(C  91,C  88,C 171)          119.3907         0.404162   
    572. A(C  87,C  88,C 171)          121.5554         0.406758   
    573. A(C  90,C  89,C  94)          118.0941         0.402685   
    574. A(C  86,C  89,C  94)          122.6709         0.400031   
    575. A(C  86,C  89,C  90)          118.7941         0.433028   
    576. A(C  91,C  90,H  93)          119.1372         0.356591   
    577. A(C  89,C  90,H  93)          118.7084         0.355452   
    578. A(C  89,C  90,C  91)          122.1538         0.437446   
    579. A(C  88,C  91,C  90)          119.1006         0.436464   
    580. A(C  90,C  91,C 172)          121.7968         0.406456   
    581. A(C  88,C  91,C 172)          119.1022         0.404214   
    582. A(H  96,C  94,H  97)          109.0937         0.290733   
    583. A(C  95,C  94,H  97)          109.3388         0.329260   
    584. A(C  89,C  94,H  97)          111.4948         0.328473   
    585. A(C  95,C  94,H  96)          110.2258         0.328689   
    586. A(C  89,C  94,H  96)          110.3747         0.327903   
    587. A(C  89,C  94,C  95)          106.2819         0.373530   
    588. A(C  98,C  95,C 102)          118.5566         0.436368   
    589. A(C  94,C  95,C 102)          119.1718         0.403443   
    590. A(C  94,C  95,C  98)          122.0978         0.404356   
    591. A(C  99,C  98,H 103)          119.8543         0.357348   
    592. A(C  95,C  98,H 103)          120.1056         0.356121   
    593. A(C  95,C  98,C  99)          120.0394         0.438976   
    594. A(C 100,C  99,H 104)          118.6695         0.354598   
    595. A(C  98,C  99,H 104)          119.8290         0.357341   
    596. A(C  98,C  99,C 100)          121.5015         0.436990   
    597. A(C 101,C 100,C 106)          123.0610         0.409207   
    598. A(C  99,C 100,C 106)          118.0951         0.411642   
    599. A(C  99,C 100,C 101)          118.7794         0.430832   
    600. A(C 102,C 101,C 120)          119.1399         0.404298   
    601. A(C 100,C 101,C 120)          121.7806         0.399435   
    602. A(C 100,C 101,C 102)          118.9159         0.433567   
    603. A(C 101,C 102,H 105)          119.1562         0.356680   
    604. A(C  95,C 102,H 105)          118.6214         0.355299   
    605. A(C  95,C 102,C 101)          122.2024         0.437159   
    606. A(C 107,C 106,C 111)          118.3007         0.432446   
    607. A(C 100,C 106,C 111)          119.1662         0.410828   
    608. A(C 100,C 106,C 107)          122.5112         0.411533   
    609. A(C 108,C 107,H 112)          119.7736         0.357856   
    610. A(C 106,C 107,H 112)          119.4668         0.354703   
    611. A(C 106,C 107,C 108)          120.7554         0.437282   
    612. A(C 109,C 108,H 115)          119.3932         0.354777   
    613. A(C 107,C 108,H 115)          119.8358         0.357663   
    614. A(C 107,C 108,C 109)          120.7703         0.437630   
    615. A(C 110,C 109,C 116)          120.2266         0.407394   
    616. A(C 108,C 109,C 116)          121.1756         0.407676   
    617. A(C 108,C 109,C 110)          118.5885         0.433581   
    618. A(C 111,C 110,H 114)          120.1927         0.358386   
    619. A(C 109,C 110,H 114)          119.1732         0.354658   
    620. A(C 109,C 110,C 111)          120.6330         0.438108   
    621. A(C 110,C 111,H 113)          120.0659         0.358410   
    622. A(C 106,C 111,H 113)          118.9863         0.354071   
    623. A(C 106,C 111,C 110)          120.9311         0.437306   
    624. A(H 118,C 116,H 119)          110.4659         0.291134   
    625. A(Cl117,C 116,H 119)          105.8976         0.325265   
    626. A(C 109,C 116,H 119)          112.3177         0.333047   
    627. A(Cl117,C 116,H 118)          105.1996         0.325111   
    628. A(C 109,C 116,H 118)          112.2155         0.332888   
    629. A(C 109,C 116,Cl117)          110.3170         0.374069   
    630. A(H 122,C 120,H 123)          107.3442         0.289607   
    631. A(C 121,C 120,H 123)          109.9714         0.328537   
    632. A(C 101,C 120,H 123)          108.5701         0.327577   
    633. A(C 121,C 120,H 122)          109.5256         0.328817   
    634. A(C 101,C 120,H 122)          110.6063         0.327856   
    635. A(C 101,C 120,C 121)          110.7556         0.374209   
    636. A(C 124,C 121,C 127)          118.6681         0.435853   
    637. A(C 120,C 121,C 127)          121.3689         0.404464   
    638. A(C 120,C 121,C 124)          119.9014         0.403850   
    639. A(C 125,C 124,H 129)          119.9012         0.357638   
    640. A(C 121,C 124,H 129)          119.4578         0.355224   
    641. A(C 121,C 124,C 125)          120.5837         0.438316   
    642. A(C 126,C 125,H 130)          119.5613         0.354783   
    643. A(C 124,C 125,H 130)          119.8215         0.357794   
    644. A(C 124,C 125,C 126)          120.6151         0.437535   
    645. A(C 128,C 126,C 133)          120.0716         0.413349   
    646. A(C 125,C 126,C 133)          121.1867         0.412858   
    647. A(C 125,C 126,C 128)          118.5642         0.434154   
    648. A(C 128,C 127,H 131)          119.5586         0.357405   
    649. A(C 121,C 127,H 131)          119.6737         0.355762   
    650. A(C 121,C 127,C 128)          120.7239         0.438670   
    651. A(C 127,C 128,H 132)          119.8787         0.357694   
    652. A(C 126,C 128,H 132)          119.4877         0.355336   
    653. A(C 126,C 128,C 127)          120.5275         0.437737   
    654. A(C 134,C 133,C 136)          118.6707         0.434510   
    655. A(C 126,C 133,C 136)          122.2031         0.413381   
    656. A(C 126,C 133,C 134)          118.9939         0.413160   
    657. A(C 133,C 134,H 139)          119.0949         0.354964   
    658. A(C 133,C 134,C 135)          121.1331         0.436951   
    659. A(C 135,C 134,H 139)          119.7110         0.357026   
    660. A(C 134,C 135,C 138)          119.7535         0.436727   
    661. A(C 138,C 135,C 142)          118.9793         0.403737   
    662. A(C 134,C 135,C 142)          121.2403         0.406381   
    663. A(C 133,C 136,C 137)          120.3552         0.437355   
    664. A(C 137,C 136,H 140)          119.9941         0.357281   
    665. A(C 133,C 136,H 140)          119.6493         0.355271   
    666. A(C 136,C 137,C 138)          120.7245         0.438590   
    667. A(C 138,C 137,H 141)          119.4890         0.355973   
    668. A(C 136,C 137,H 141)          119.7717         0.357038   
    669. A(C 135,C 138,C 137)          119.2977         0.435512   
    670. A(C 137,C 138,C 145)          121.8510         0.405418   
    671. A(C 135,C 138,C 145)          118.8360         0.403883   
    672. A(H 148,C 142,H 149)          107.4548         0.289005   
    673. A(C 143,C 142,H 149)          108.3045         0.328378   
    674. A(C 135,C 142,H 149)          108.1353         0.328006   
    675. A(C 143,C 142,H 148)          110.7737         0.329766   
    676. A(C 135,C 142,H 148)          110.6721         0.329392   
    677. A(C 135,C 142,C 143)          111.3526         0.376717   
    678. A(C 144,C 143,C 150)          119.2826         0.435958   
    679. A(C 142,C 143,C 150)          121.8388         0.406280   
    680. A(C 142,C 143,C 144)          118.8599         0.404119   
    681. A(C 145,C 144,C 151)          121.8593         0.406692   
    682. A(C 143,C 144,C 151)          119.1492         0.436876   
    683. A(C 143,C 144,C 145)          118.9707         0.403695   
    684. A(H 146,C 145,H 147)          107.3299         0.289038   
    685. A(C 144,C 145,H 147)          110.7164         0.329440   
    686. A(C 138,C 145,H 147)          110.7563         0.329501   
    687. A(C 144,C 145,H 146)          108.2806         0.328099   
    688. A(C 138,C 145,H 146)          108.1962         0.328159   
    689. A(C 138,C 145,C 144)          111.4071         0.376463   
    690. A(C 153,C 150,H 154)          118.9341         0.355694   
    691. A(C 143,C 150,H 154)          119.0878         0.356325   
    692. A(C 143,C 150,C 153)          121.9650         0.437513   
    693. A(C 152,C 151,H 155)          118.6119         0.354202   
    694. A(C 144,C 151,H 155)          119.6074         0.357037   
    695. A(C 144,C 151,C 152)          121.7277         0.436474   
    696. A(C 153,C 152,C 156)          123.3493         0.409926   
    697. A(C 151,C 152,C 156)          117.5950         0.411218   
    698. A(C 151,C 152,C 153)          119.0541         0.431420   
    699. A(C 152,C 153,C 170)          122.7643         0.400475   
    700. A(C 150,C 153,C 170)          118.4969         0.403494   
    701. A(C 150,C 153,C 152)          118.7240         0.433353   
    702. A(C 157,C 156,C 159)          118.3252         0.431383   
    703. A(C 152,C 156,C 159)          121.7232         0.410524   
    704. A(C 152,C 156,C 157)          119.9074         0.410584   
    705. A(C 158,C 157,H 162)          120.0795         0.358055   
    706. A(C 156,C 157,H 162)          118.9999         0.353873   
    707. A(C 156,C 157,C 158)          120.9073         0.436853   
    708. A(C 161,C 158,H 163)          119.3875         0.354110   
    709. A(C 157,C 158,H 163)          119.9749         0.358065   
    710. A(C 157,C 158,C 161)          120.6375         0.437150   
    711. A(C 160,C 159,H 164)          119.7598         0.357945   
    712. A(C 156,C 159,C 160)          120.7562         0.436667   
    713. A(C 156,C 159,H 164)          119.4628         0.353808   
    714. A(C 161,C 160,H 165)          119.3351         0.354274   
    715. A(C 159,C 160,H 165)          119.8763         0.357943   
    716. A(C 159,C 160,C 161)          120.7875         0.437282   
    717. A(C 158,C 161,C 166)          120.6929         0.407584   
    718. A(C 160,C 161,C 166)          120.7238         0.407815   
    719. A(C 158,C 161,C 160)          118.5635         0.432281   
    720. A(H 168,C 166,H 169)          110.6651         0.291217   
    721. A(Cl167,C 166,H 169)          105.2841         0.324174   
    722. A(C 161,C 166,H 169)          112.4903         0.333605   
    723. A(Cl167,C 166,H 168)          105.2919         0.324173   
    724. A(C 161,C 166,H 168)          112.5020         0.333604   
    725. A(C 161,C 166,Cl167)          110.1106         0.373469   
    726. A(H 199,C 170,H 200)          108.4666         0.290352   
    727. A(C 198,C 170,H 200)          107.7570         0.328798   
    728. A(C 153,C 170,H 200)          110.0800         0.328554   
    729. A(C 198,C 170,H 199)          109.1037         0.328347   
    730. A(C 153,C 170,H 199)          108.9011         0.328103   
    731. A(C 153,C 170,C 198)          112.4501         0.373758   
    732. A(H 177,C 171,H 178)          107.3623         0.289377   
    733. A(C 176,C 171,H 178)          107.9100         0.328838   
    734. A(C  88,C 171,H 178)          108.4174         0.328826   
    735. A(C 176,C 171,H 177)          110.5335         0.329552   
    736. A(C  88,C 171,H 177)          110.4238         0.329540   
    737. A(C  88,C 171,C 176)          112.0246         0.376910   
    738. A(H 174,C 172,H 175)          107.5337         0.289123   
    739. A(C 173,C 172,H 175)          110.6217         0.329268   
    740. A(C  91,C 172,H 175)          110.7349         0.329657   
    741. A(C 173,C 172,H 174)          108.5981         0.328098   
    742. A(C  91,C 172,H 174)          107.5159         0.328485   
    743. A(C  91,C 172,C 173)          111.6726         0.376526   
    744. A(C 176,C 173,C 180)          119.1701         0.436159   
    745. A(C 172,C 173,C 180)          121.7321         0.405356   
    746. A(C 172,C 173,C 176)          119.0934         0.404012   
    747. A(C 173,C 176,C 179)          119.3205         0.436247   
    748. A(C 171,C 176,C 179)          121.2098         0.405912   
    749. A(C 171,C 176,C 173)          119.4367         0.404485   
    750. A(C 182,C 179,H 183)          119.2531         0.355756   
    751. A(C 176,C 179,H 183)          118.8899         0.356072   
    752. A(C 176,C 179,C 182)          121.8535         0.437405   
    753. A(C 181,C 180,H 184)          118.7795         0.355300   
    754. A(C 173,C 180,H 184)          119.7062         0.356036   
    755. A(C 173,C 180,C 181)          121.5126         0.436679   
    756. A(C 182,C 181,C 185)          121.0058         0.408716   
    757. A(C 180,C 181,C 185)          119.6128         0.410698   
    758. A(C 180,C 181,C 182)          119.3779         0.433586   
    759. A(C 181,C 182,C 230)          120.7836         0.400923   
    760. A(C 179,C 182,C 230)          120.1362         0.403431   
    761. A(C 179,C 182,C 181)          118.7366         0.434216   
    762. A(C 186,C 185,C 187)          118.4654         0.435245   
    763. A(C 181,C 185,C 187)          120.1889         0.410367   
    764. A(C 181,C 185,C 186)          121.3453         0.410587   
    765. A(C 190,C 186,H 192)          120.0255         0.356945   
    766. A(C 185,C 186,H 192)          119.4154         0.355502   
    767. A(C 185,C 186,C 190)          120.5516         0.437357   
    768. A(C 188,C 187,H 193)          119.7339         0.356921   
    769. A(C 185,C 187,H 193)          119.3787         0.355164   
    770. A(C 185,C 187,C 188)          120.8845         0.437292   
    771. A(C 189,C 188,H 194)          119.8810         0.355656   
    772. A(C 187,C 188,H 194)          119.3532         0.357172   
    773. A(C 187,C 188,C 189)          120.7651         0.437608   
    774. A(C 190,C 189,C 195)          120.0212         0.401092   
    775. A(C 188,C 189,C 195)          121.6777         0.401460   
    776. A(C 188,C 189,C 190)          118.2751         0.435229   
    777. A(C 189,C 190,H 191)          119.4322         0.355058   
    778. A(C 186,C 190,H 191)          119.5132         0.356754   
    779. A(C 186,C 190,C 189)          121.0542         0.437025   
    780. A(H 207,C 195,H 208)          107.4240         0.289484   
    781. A(C 189,C 195,H 208)          107.6572         0.326283   
    782. A(C 201,C 195,H 207)          110.5931         0.329127   
    783. A(C 189,C 195,H 207)          109.4239         0.326972   
    784. A(C 189,C 195,C 201)          112.6110         0.373204   
    785. A(C 201,C 195,H 208)          108.9538         0.328432   
    786. A(C 201,C 196,H 206)          118.3404         0.354691   
    787. A(C 198,C 196,H 206)          119.1092         0.356080   
    788. A(C 198,C 196,C 201)          122.5196         0.436249   
    789. A(C 203,C 197,H 204)          120.0030         0.358588   
    790. A(C 198,C 197,H 204)          119.9154         0.355790   
    791. A(C 198,C 197,C 203)          120.0341         0.439106   
    792. A(C 196,C 198,C 197)          118.0744         0.436765   
    793. A(C 170,C 198,C 197)          120.4037         0.403263   
    794. A(C 170,C 198,C 196)          121.4709         0.404436   
    795. A(C 196,C 201,C 202)          118.9058         0.432217   
    796. A(C 195,C 201,C 202)          122.9249         0.401717   
    797. A(C 195,C 201,C 196)          118.1684         0.403747   
    798. A(C 203,C 202,C 209)          117.4393         0.409912   
    799. A(C 201,C 202,C 209)          124.0502         0.409508   
    800. A(C 201,C 202,C 203)          118.1131         0.430434   
    801. A(C 202,C 203,H 205)          118.8771         0.353754   
    802. A(C 197,C 203,H 205)          119.1319         0.358328   
    803. A(C 197,C 203,C 202)          121.9852         0.436771   
    804. A(C 210,C 209,C 214)          117.8843         0.433073   
    805. A(C 202,C 209,C 214)          116.6644         0.410460   
    806. A(C 202,C 209,C 210)          125.4335         0.411434   
    807. A(C 211,C 210,H 215)          119.3612         0.356762   
    808. A(C 209,C 210,H 215)          120.1419         0.355313   
    809. A(C 209,C 210,C 211)          120.4925         0.435993   
    810. A(C 212,C 211,H 216)          119.4314         0.356121   
    811. A(C 210,C 211,H 216)          119.4158         0.356315   
    812. A(C 210,C 211,C 212)          121.1511         0.437628   
    813. A(C 211,C 212,C 213)          118.6892         0.435538   
    814. A(C 213,C 212,C 318)          118.4332         0.403084   
    815. A(C 211,C 212,C 318)          122.8753         0.404750   
    816. A(C 212,C 213,C 214)          119.9621         0.437310   
    817. A(C 214,C 213,C 315)          121.4482         0.407530   
    818. A(C 212,C 213,C 315)          118.5896         0.404238   
    819. A(C 213,C 214,H 217)          119.0186         0.357584   
    820. A(C 209,C 214,H 217)          119.3023         0.354161   
    821. A(C 209,C 214,C 213)          121.6737         0.436462   
    822. A(H 220,C 218,H 221)          107.2060         0.289554   
    823. A(C 219,C 218,H 221)          110.6923         0.328643   
    824. A(C  66,C 218,H 221)          109.8359         0.328303   
    825. A(C 219,C 218,H 220)          109.0389         0.328223   
    826. A(C  66,C 218,H 220)          108.7006         0.327884   
    827. A(C  66,C 218,C 219)          111.2555         0.374443   
    828. A(C 222,C 219,C 225)          119.0139         0.434434   
    829. A(C 218,C 219,C 225)          117.7444         0.404512   
    830. A(C 218,C 219,C 222)          123.2325         0.401958   
    831. A(C 223,C 222,C 233)          119.7411         0.410959   
    832. A(C 219,C 222,C 233)          121.4382         0.409829   
    833. A(C 219,C 222,C 223)          118.8205         0.432846   
    834. A(C 224,C 223,H 228)          119.8072         0.357254   
    835. A(C 222,C 223,H 228)          118.7605         0.354973   
    836. A(C 222,C 223,C 224)          121.3821         0.437017   
    837. A(C 226,C 224,H 229)          119.9409         0.356019   
    838. A(C 223,C 224,H 229)          120.0064         0.357356   
    839. A(C 223,C 224,C 226)          120.0486         0.438254   
    840. A(C 226,C 225,H 227)          119.3106         0.356321   
    841. A(C 219,C 225,H 227)          118.4909         0.356155   
    842. A(C 219,C 225,C 226)          122.1525         0.437469   
    843. A(C 225,C 226,C 230)          119.1201         0.404008   
    844. A(C 224,C 226,C 230)          122.2672         0.403479   
    845. A(C 224,C 226,C 225)          118.4448         0.437100   
    846. A(H 231,C 230,H 232)          108.9031         0.290473   
    847. A(C 226,C 230,H 232)          110.0701         0.328675   
    848. A(C 182,C 230,H 232)          111.4214         0.328475   
    849. A(C 226,C 230,H 231)          110.2675         0.328224   
    850. A(C 182,C 230,H 231)          109.7707         0.328024   
    851. A(C 182,C 230,C 226)          106.3919         0.373345   
    852. A(C 234,C 233,C 238)          118.6237         0.434326   
    853. A(C 222,C 233,C 238)          120.6054         0.411631   
    854. A(C 222,C 233,C 234)          120.7689         0.410538   
    855. A(C 235,C 234,H 239)          119.8139         0.357617   
    856. A(C 233,C 234,H 239)          119.5641         0.354607   
    857. A(C 233,C 234,C 235)          120.6216         0.437056   
    858. A(C 236,C 235,H 240)          119.3480         0.355384   
    859. A(C 234,C 235,H 240)          119.9436         0.357583   
    860. A(C 234,C 235,C 236)          120.7052         0.438119   
    861. A(C 237,C 236,C 243)          121.6485         0.404191   
    862. A(C 235,C 236,C 243)          119.6489         0.403612   
    863. A(C 235,C 236,C 237)          118.6693         0.435898   
    864. A(C 238,C 237,H 241)          119.4957         0.356775   
    865. A(C 236,C 237,H 241)          119.7186         0.355726   
    866. A(C 236,C 237,C 238)          120.7786         0.437904   
    867. A(C 237,C 238,H 242)          120.1181         0.356842   
    868. A(C 233,C 238,H 242)          119.3055         0.355394   
    869. A(C 233,C 238,C 237)          120.5603         0.437382   
    870. A(H 245,C 243,H 246)          108.8895         0.290486   
    871. A(C 244,C 243,H 246)          110.6971         0.328491   
    872. A(C 236,C 243,H 246)          109.3114         0.329252   
    873. A(C 244,C 243,H 245)          109.6970         0.327973   
    874. A(C 236,C 243,H 245)          109.9497         0.328732   
    875. A(C 236,C 243,C 244)          108.2867         0.373951   
    876. A(C 247,C 244,C 251)          118.9661         0.433774   
    877. A(C 243,C 244,C 251)          122.7476         0.400869   
    878. A(C 243,C 244,C 247)          118.1253         0.403017   
    879. A(C 248,C 247,H 254)          119.3421         0.357236   
    880. A(C 244,C 247,H 254)          119.0235         0.355619   
    881. A(C 244,C 247,C 248)          121.6335         0.438253   
    882. A(C 247,C 248,C 249)          119.5110         0.436326   
    883. A(C 249,C 248,C 273)          117.7558         0.403650   
    884. A(C 247,C 248,C 273)          122.7159         0.407314   
    885. A(C 250,C 249,C 268)          123.0717         0.406624   
    886. A(C 248,C 249,C 268)          117.6523         0.402692   
    887. A(C 248,C 249,C 250)          119.2570         0.436631   
    888. A(C 251,C 250,H 253)          118.6937         0.353982   
    889. A(C 249,C 250,H 253)          119.8688         0.357368   
    890. A(C 249,C 250,C 251)          121.4261         0.436548   
    891. A(C 250,C 251,C 252)          118.1338         0.410931   
    892. A(C 244,C 251,C 252)          122.6607         0.410580   
    893. A(C 244,C 251,C 250)          119.2043         0.431789   
    894. A(C 255,C 252,C 259)          118.4596         0.432065   
    895. A(C 251,C 252,C 259)          120.1588         0.411053   
    896. A(C 251,C 252,C 255)          121.3590         0.410717   
    897. A(C 256,C 255,H 260)          119.9643         0.357928   
    898. A(C 252,C 255,H 260)          119.3119         0.353998   
    899. A(C 252,C 255,C 256)          120.7088         0.436790   
    900. A(C 257,C 256,H 261)          119.3459         0.354409   
    901. A(C 255,C 256,H 261)          119.9310         0.357920   
    902. A(C 255,C 256,C 257)          120.7229         0.437339   
    903. A(C 258,C 257,C 264)          120.7703         0.407481   
    904. A(C 256,C 257,C 264)          120.5544         0.407402   
    905. A(C 256,C 257,C 258)          118.6562         0.432876   
    906. A(C 259,C 258,H 262)          119.9437         0.357830   
    907. A(C 257,C 258,H 262)          119.4374         0.354487   
    908. A(C 257,C 258,C 259)          120.6189         0.437292   
    909. A(C 258,C 259,H 263)          120.0759         0.357824   
    910. A(C 252,C 259,H 263)          119.0906         0.354273   
    911. A(C 252,C 259,C 258)          120.8245         0.437020   
    912. A(H 266,C 264,H 267)          110.5969         0.291183   
    913. A(Cl265,C 264,H 267)          105.4255         0.324933   
    914. A(C 257,C 264,H 267)          112.3757         0.333159   
    915. A(Cl265,C 264,H 266)          105.5573         0.324964   
    916. A(C 257,C 264,H 266)          112.3602         0.333192   
    917. A(C 257,C 264,Cl265)          110.0722         0.373953   
    918. A(C 249,C 268,C 269)          108.9007         0.375776   
    919. A(H 270,C 268,H 271)          107.9205         0.289258   
    920. A(C 269,C 268,H 271)          108.9941         0.328014   
    921. A(C 249,C 268,H 271)          108.7049         0.327880   
    922. A(C 269,C 268,H 270)          111.1482         0.329411   
    923. A(C 249,C 268,H 270)          111.1151         0.329275   
    924. A(C 272,C 269,C 276)          118.9430         0.434527   
    925. A(C 268,C 269,C 276)          123.2848         0.405056   
    926. A(C 268,C 269,C 272)          117.7486         0.402693   
    927. A(C 273,C 272,C 279)          122.1224         0.407527   
    928. A(C 269,C 272,C 279)          120.2622         0.437133   
    929. A(C 269,C 272,C 273)          117.5874         0.402778   
[...]
231 H      1.0001     1.0000    -0.0001     0.9860     0.9860    -0.0000
232 H      1.0116     1.0000    -0.0116     1.0109     1.0109    -0.0000
233 C      6.0129     6.0000    -0.0129     3.8065     3.8065    -0.0000
234 C      5.9866     6.0000     0.0134     3.8312     3.8312    -0.0000
235 C      5.9989     6.0000     0.0011     3.8261     3.8261    -0.0000
236 C      6.0306     6.0000    -0.0306     3.9645     3.9645    -0.0000
237 C      6.0128     6.0000    -0.0128     3.8270     3.8270     0.0000
238 C      5.9852     6.0000     0.0148     3.8357     3.8357    -0.0000
239 H      1.0319     1.0000    -0.0319     0.9991     0.9991    -0.0000
240 H      1.0309     1.0000    -0.0309     0.9978     0.9978     0.0000
241 H      1.0363     1.0000    -0.0363     0.9863     0.9863    -0.0000
242 H      1.0336     1.0000    -0.0336     0.9887     0.9887     0.0000
243 C      5.7743     6.0000     0.2257     3.8430     3.8430    -0.0000
244 C      6.0433     6.0000    -0.0433     4.0097     4.0097    -0.0000
245 H      1.0027     1.0000    -0.0027     0.9861     0.9861    -0.0000
246 H      0.9910     1.0000     0.0090     1.0094     1.0094     0.0000
247 C      6.0793     6.0000    -0.0793     3.8292     3.8292    -0.0000
248 C      6.0569     6.0000    -0.0569     4.0054     4.0054    -0.0000
249 C      6.0683     6.0000    -0.0683     3.9984     3.9984    -0.0000
250 C      6.0689     6.0000    -0.0689     3.8503     3.8503    -0.0000
251 C      5.9544     6.0000     0.0456     3.8035     3.8035    -0.0000
252 C      6.0350     6.0000    -0.0350     3.8544     3.8544    -0.0000
253 H      1.0486     1.0000    -0.0486     0.9976     0.9976     0.0000
254 H      1.0588     1.0000    -0.0588     1.0057     1.0057    -0.0000
255 C      5.9704     6.0000     0.0296     3.8344     3.8344    -0.0000
256 C      5.9864     6.0000     0.0136     3.8484     3.8484    -0.0000
257 C      6.0089     6.0000    -0.0089     3.8819     3.8819    -0.0000
258 C      5.9872     6.0000     0.0128     3.8418     3.8418    -0.0000
259 C      5.9771     6.0000     0.0229     3.8373     3.8373    -0.0000
260 H      1.0182     1.0000    -0.0182     0.9875     0.9875    -0.0000
261 H      1.0267     1.0000    -0.0267     0.9879     0.9879    -0.0000
262 H      1.0270     1.0000    -0.0270     0.9872     0.9872     0.0000
263 H      1.0226     1.0000    -0.0226     0.9898     0.9898     0.0000
264 C      5.9444     6.0000     0.0556     3.9325     3.9325    -0.0000
265 Cl    17.1637    17.0000    -0.1637     1.0810     1.0810    -0.0000
266 H      0.9397     1.0000     0.0603     0.9818     0.9818    -0.0000
267 H      0.9372     1.0000     0.0628     0.9799     0.9799    -0.0000
268 C      5.7116     6.0000     0.2884     3.7991     3.7991    -0.0000
269 C      6.0789     6.0000    -0.0789     4.0181     4.0181    -0.0000
270 H      1.0111     1.0000    -0.0111     1.0010     1.0010    -0.0000
271 H      0.9724     1.0000     0.0276     0.9828     0.9828    -0.0000
272 C      6.0661     6.0000    -0.0661     4.0357     4.0357    -0.0000
273 C      5.7127     6.0000     0.2873     3.7988     3.7988     0.0000
274 H      1.0111     1.0000    -0.0111     1.0022     1.0022    -0.0000
275 H      0.9704     1.0000     0.0296     0.9829     0.9829     0.0000
276 C      6.0305     6.0000    -0.0305     3.8540     3.8540    -0.0000
277 C      6.0233     6.0000    -0.0233     3.8003     3.8003    -0.0000
278 C      5.8964     6.0000     0.1036     3.7453     3.7453    -0.0000
279 C      6.0870     6.0000    -0.0870     3.8367     3.8367    -0.0000
280 H      1.0396     1.0000    -0.0396     1.0058     1.0058    -0.0000
281 H      1.0305     1.0000    -0.0305     0.9866     0.9866     0.0000
282 H      1.0389     1.0000    -0.0389     0.9858     0.9858     0.0000
283 C      5.8839     6.0000     0.1161     3.7141     3.7141    -0.0000
284 C      6.0190     6.0000    -0.0190     3.8061     3.8061    -0.0000
285 C      6.0013     6.0000    -0.0013     3.8517     3.8517    -0.0000
286 C      6.0643     6.0000    -0.0643     3.7924     3.7924    -0.0000
287 C      6.0759     6.0000    -0.0759     4.0678     4.0678    -0.0000
288 C      6.0446     6.0000    -0.0446     3.9581     3.9581    -0.0000
289 H      1.0339     1.0000    -0.0339     0.9867     0.9867     0.0000
290 H      1.0312     1.0000    -0.0312     0.9878     0.9878    -0.0000
291 H      1.0022     1.0000    -0.0022     0.9990     0.9990    -0.0000
292 C      5.9448     6.0000     0.0552     3.9519     3.9519    -0.0000
293 Cl    17.1594    17.0000    -0.1594     1.1104     1.1104    -0.0000
294 H      0.9388     1.0000     0.0612     0.9842     0.9842    -0.0000
295 H      0.9426     1.0000     0.0574     0.9873     0.9873    -0.0000
296 C      5.7722     6.0000     0.2278     3.7637     3.7637    -0.0000
297 C      6.0921     6.0000    -0.0921     4.0030     4.0030    -0.0000
298 H      0.9826     1.0000     0.0174     0.9905     0.9905     0.0000
299 H      0.9872     1.0000     0.0128     1.0287     1.0287    -0.0000
300 C      5.9960     6.0000     0.0040     3.8367     3.8367    -0.0000
301 C      6.0059     6.0000    -0.0059     3.8271     3.8271    -0.0000
302 C      5.9351     6.0000     0.0649     3.7820     3.7820    -0.0000
303 C      6.0096     6.0000    -0.0096     3.8212     3.8212    -0.0000
304 C      5.9872     6.0000     0.0128     3.8369     3.8369    -0.0000
305 H      1.0323     1.0000    -0.0323     0.9862     0.9862     0.0000
306 C      5.9124     6.0000     0.0876     3.7560     3.7560    -0.0000
307 C      6.0749     6.0000    -0.0749     3.8310     3.8310    -0.0000
308 C      6.0095     6.0000    -0.0095     3.8173     3.8173    -0.0000
309 C      6.0614     6.0000    -0.0614     4.0198     4.0198     0.0000
310 C      6.0827     6.0000    -0.0827     4.0237     4.0237    -0.0000
311 C      6.0290     6.0000    -0.0290     3.8503     3.8503     0.0000
312 H      1.0499     1.0000    -0.0499     0.9970     0.9970     0.0000
313 H      1.0284     1.0000    -0.0284     0.9896     0.9896     0.0000
314 H      1.0369     1.0000    -0.0369     0.9865     0.9865     0.0000
315 C      5.7303     6.0000     0.2697     3.7948     3.7948    -0.0000
316 H      1.0067     1.0000    -0.0067     1.0029     1.0029    -0.0000
317 H      0.9681     1.0000     0.0319     0.9822     0.9822    -0.0000
318 C      5.7323     6.0000     0.2677     3.7839     3.7839    -0.0000
319 H      0.9680     1.0000     0.0320     0.9836     0.9836    -0.0000
320 H      1.0055     1.0000    -0.0055     1.0027     1.0027     0.0000
321 H      1.0270     1.0000    -0.0270     0.9869     0.9869     0.0000
322 H      1.0254     1.0000    -0.0254     0.9887     0.9887    -0.0000
323 H      1.0308     1.0000    -0.0308     0.9887     0.9887    -0.0000

  Mayer bond orders larger than 0.100000
B(  0-C ,  1-C ) :   1.3809 B(  0-C ,  5-C ) :   1.3713 B(  0-C , 18-C ) :   0.9612 
B(  1-C ,  2-C ) :   1.3619 B(  1-C ,  8-H ) :   0.9828 B(  2-C ,  3-C ) :   1.3621 
B(  2-C ,  9-H ) :   0.9857 B(  3-C ,  4-C ) :   1.3559 B(  3-C , 10-C ) :   1.0537 
B(  4-C ,  5-C ) :   1.3627 B(  4-C ,  7-H ) :   0.9858 B(  5-C ,  6-H ) :   0.9782 
B( 10-C , 11-Cl) :   1.0209 B( 10-C , 12-H ) :   0.9366 B( 10-C , 13-H ) :   0.9365 
B( 14-C , 15-C ) :   1.3569 B( 14-C , 16-C ) :   1.3351 B( 14-C , 19-H ) :   0.9793 
B( 15-C , 17-C ) :   1.4070 B( 15-C , 52-C ) :   1.0485 B( 16-C , 18-C ) :   1.3903 
B( 16-C , 22-C ) :   1.0885 B( 17-C , 20-C ) :   1.3345 B( 17-C , 48-C ) :   1.0420 
B( 18-C , 20-C ) :   1.3670 B( 20-C , 21-H ) :   0.9940 B( 22-C , 23-C ) :   1.0567 
B( 22-C , 24-H ) :   0.8625 B( 22-C , 25-H ) :   0.8704 B( 23-C , 26-C ) :   1.3603 
B( 23-C , 30-C ) :   1.3486 B( 26-C , 27-C ) :   1.3561 B( 26-C , 31-H ) :   0.9818 
B( 27-C , 28-C ) :   1.3591 B( 27-C , 32-H ) :   0.9796 B( 28-C , 29-C ) :   1.3882 
B( 28-C , 34-C ) :   0.9753 B( 29-C , 30-C ) :   1.3651 B( 29-C , 73-C ) :   1.0523 
B( 30-C , 33-H ) :   0.9780 B( 34-C , 35-C ) :   1.3643 B( 34-C , 38-C ) :   1.3524 
B( 35-C , 36-C ) :   1.3653 B( 35-C , 40-H ) :   0.9850 B( 36-C , 37-C ) :   1.3556 
B( 36-C , 41-H ) :   0.9842 B( 37-C , 39-C ) :   1.3600 B( 37-C , 44-C ) :   1.0594 
B( 38-C , 39-C ) :   1.3701 B( 38-C , 42-H ) :   0.9809 B( 39-C , 43-H ) :   0.9840 
B( 44-C , 45-Cl) :   1.0143 B( 44-C , 46-H ) :   0.9368 B( 44-C , 47-H ) :   0.9370 
B( 48-C , 49-C ) :   1.0457 B( 48-C , 50-H ) :   0.8781 B( 48-C , 51-H ) :   0.8369 
B( 49-C , 53-C ) :   1.4054 B( 49-C , 56-C ) :   1.3748 B( 52-C , 53-C ) :   1.0430 
B( 52-C , 54-H ) :   0.8331 B( 52-C , 55-H ) :   0.8795 B( 53-C , 58-C ) :   1.3726 
B( 56-C , 57-C ) :   1.3447 B( 56-C , 61-H ) :   0.9838 B( 57-C , 59-C ) :   1.3573 
B( 57-C , 62-H ) :   0.9821 B( 58-C , 59-C ) :   1.3310 B( 58-C , 60-H ) :   0.9743 
B( 59-C , 63-C ) :   0.9912 B( 63-C , 64-C ) :   1.3508 B( 63-C , 70-C ) :   1.3466 
B( 64-C , 65-C ) :   1.3590 B( 64-C , 68-H ) :   0.9828 B( 65-C , 66-C ) :   1.3681 
B( 65-C , 69-H ) :   0.9874 B( 66-C , 67-C ) :   1.3823 B( 66-C ,218-C ) :   1.0205 
B( 67-C , 70-C ) :   1.3728 B( 67-C , 71-H ) :   0.9620 B( 70-C , 72-H ) :   0.9780 
B( 73-C , 74-C ) :   1.0087 B( 73-C , 75-H ) :   0.8612 B( 73-C , 76-H ) :   0.8840 
B( 74-C , 77-C ) :   1.3841 B( 74-C , 79-C ) :   1.3685 B( 77-C , 78-C ) :   1.3694 
B( 77-C , 82-H ) :   0.9629 B( 78-C , 81-C ) :   1.3600 B( 78-C , 83-H ) :   0.9643 
B( 79-C , 80-C ) :   1.3490 B( 79-C , 84-H ) :   0.9904 B( 80-C , 81-C ) :   1.3578 
B( 80-C , 85-H ) :   0.9805 B( 81-C , 86-C ) :   0.9646 B( 86-C , 87-C ) :   1.3470 
B( 86-C , 89-C ) :   1.3915 B( 87-C , 88-C ) :   1.3658 B( 87-C , 92-H ) :   0.9722 
B( 88-C , 91-C ) :   1.3893 B( 88-C ,171-C ) :   1.0417 B( 89-C , 90-C ) :   1.3144 
B( 89-C , 94-C ) :   1.0891 B( 90-C , 91-C ) :   1.3693 B( 90-C , 93-H ) :   0.9837 
B( 91-C ,172-C ) :   1.0461 B( 94-C , 95-C ) :   1.0589 B( 94-C , 96-H ) :   0.8784 
B( 94-C , 97-H ) :   0.8631 B( 95-C , 98-C ) :   1.3735 B( 95-C ,102-C ) :   1.3378 
B( 98-C , 99-C ) :   1.3332 B( 98-C ,103-H ) :   0.9848 B( 99-C ,100-C ) :   1.3887 
B( 99-C ,104-H ) :   0.9843 B(100-C ,101-C ) :   1.3787 B(100-C ,106-C ) :   0.9775 
B(101-C ,102-C ) :   1.3609 B(101-C ,120-C ) :   1.0619 B(102-C ,105-H ) :   0.9834 
B(106-C ,107-C ) :   1.3784 B(106-C ,111-C ) :   1.3716 B(107-C ,108-C ) :   1.3532 
B(107-C ,112-H ) :   0.9822 B(108-C ,109-C ) :   1.3693 B(108-C ,115-H ) :   0.9817 
B(109-C ,110-C ) :   1.3548 B(109-C ,116-C ) :   1.0556 B(110-C ,111-C ) :   1.3680 
B(110-C ,114-H ) :   0.9804 B(111-C ,113-H ) :   0.9781 B(116-C ,117-Cl) :   1.0201 
B(116-C ,118-H ) :   0.9364 B(116-C ,119-H ) :   0.9370 B(120-C ,121-C ) :   1.0413 
B(120-C ,122-H ) :   0.8775 B(120-C ,123-H ) :   0.8716 B(121-C ,124-C ) :   1.3725 
B(121-C ,127-C ) :   1.3787 B(124-C ,125-C ) :   1.3496 B(124-C ,129-H ) :   0.9828 
B(125-C ,126-C ) :   1.3440 B(125-C ,130-H ) :   0.9881 B(126-C ,128-C ) :   1.3739 
B(126-C ,133-C ) :   0.9825 B(127-C ,128-C ) :   1.3651 B(127-C ,131-H ) :   0.9753 
B(128-C ,132-H ) :   0.9768 B(133-C ,134-C ) :   1.3502 B(133-C ,136-C ) :   1.3589 
B(134-C ,135-C ) :   1.3750 B(134-C ,139-H ) :   0.9774 B(135-C ,138-C ) :   1.3996 
B(135-C ,142-C ) :   1.0460 B(136-C ,137-C ) :   1.3477 B(136-C ,140-H ) :   0.9853 
B(137-C ,138-C ) :   1.3816 B(137-C ,141-H ) :   0.9836 B(138-C ,145-C ) :   1.0482 
B(142-C ,143-C ) :   1.0470 B(142-C ,148-H ) :   0.8874 B(142-C ,149-H ) :   0.8474 
B(143-C ,144-C ) :   1.3879 B(143-C ,150-C ) :   1.3675 B(144-C ,145-C ) :   1.0483 
B(144-C ,151-C ) :   1.3667 B(145-C ,146-H ) :   0.8481 B(145-C ,147-H ) :   0.8868 
B(150-C ,153-C ) :   1.3300 B(150-C ,154-H ) :   0.9857 B(151-C ,152-C ) :   1.3496 
B(151-C ,155-H ) :   0.9877 B(152-C ,153-C ) :   1.4019 B(152-C ,156-C ) :   0.9586 
B(153-C ,170-C ) :   1.0789 B(156-C ,157-C ) :   1.3684 B(156-C ,159-C ) :   1.3744 
B(157-C ,158-C ) :   1.3574 B(157-C ,162-H ) :   0.9829 B(158-C ,161-C ) :   1.3576 
B(158-C ,163-H ) :   0.9859 B(159-C ,160-C ) :   1.3694 B(159-C ,164-H ) :   0.9741 
B(160-C ,161-C ) :   1.3592 B(160-C ,165-H ) :   0.9836 B(161-C ,166-C ) :   1.0584 
B(166-C ,167-Cl) :   1.0166 B(166-C ,168-H ) :   0.9367 B(166-C ,169-H ) :   0.9365 
B(170-C ,198-C ) :   1.0523 B(170-C ,199-H ) :   0.8829 B(170-C ,200-H ) :   0.8613 
B(171-C ,176-C ) :   1.0449 B(171-C ,177-H ) :   0.8780 B(171-C ,178-H ) :   0.8293 
B(172-C ,173-C ) :   1.0429 B(172-C ,174-H ) :   0.8345 B(172-C ,175-H ) :   0.8797 
B(173-C ,176-C ) :   1.4045 B(173-C ,180-C ) :   1.3431 B(176-C ,179-C ) :   1.3625 
B(179-C ,182-C ) :   1.3338 B(179-C ,183-H ) :   0.9785 B(180-C ,181-C ) :   1.3725 
B(180-C ,184-H ) :   0.9906 B(181-C ,182-C ) :   1.3961 B(181-C ,185-C ) :   0.9498 
B(182-C ,230-C ) :   1.0870 B(185-C ,186-C ) :   1.3854 B(185-C ,187-C ) :   1.3859 
B(186-C ,190-C ) :   1.3548 B(186-C ,192-H ) :   0.9808 B(187-C ,188-C ) :   1.3391 
B(187-C ,193-H ) :   0.9780 B(188-C ,189-C ) :   1.3832 B(188-C ,194-H ) :   0.9737 
B(189-C ,190-C ) :   1.3625 B(189-C ,195-C ) :   1.0293 B(190-C ,191-H ) :   0.9897 
B(195-C ,201-C ) :   1.0648 B(195-C ,207-H ) :   0.8839 B(195-C ,208-H ) :   0.8648 
B(196-C ,198-C ) :   1.3572 B(196-C ,201-C ) :   1.3323 B(196-C ,206-H ) :   0.9825 
B(197-C ,198-C ) :   1.3528 B(197-C ,203-C ) :   1.3718 B(197-C ,204-H ) :   0.9834 
B(201-C ,202-C ) :   1.4121 B(202-C ,203-C ) :   1.3316 B(202-C ,209-C ) :   0.9824 
B(203-C ,205-H ) :   0.9800 B(209-C ,210-C ) :   1.3560 B(209-C ,214-C ) :   1.3347 
B(210-C ,211-C ) :   1.3422 B(210-C ,215-H ) :   0.9866 B(211-C ,212-C ) :   1.3918 
B(211-C ,216-H ) :   0.9844 B(212-C ,213-C ) :   1.3875 B(212-C ,318-C ) :   1.0470 
B(213-C ,214-C ) :   1.3830 B(213-C ,315-C ) :   1.0504 B(214-C ,217-H ) :   0.9826 
B(218-C ,219-C ) :   1.0530 B(218-C ,220-H ) :   0.8850 B(218-C ,221-H ) :   0.8575 
B(219-C ,222-C ) :   1.3981 B(219-C ,225-C ) :   1.3647 B(222-C ,223-C ) :   1.3743 
B(222-C ,233-C ) :   0.9604 B(223-C ,224-C ) :   1.3435 B(223-C ,228-H ) :   0.9834 
B(224-C ,226-C ) :   1.3779 B(224-C ,229-H ) :   0.9735 B(225-C ,226-C ) :   1.3473 
B(225-C ,227-H ) :   0.9773 B(226-C ,230-C ) :   1.0571 B(230-C ,231-H ) :   0.8723 
B(230-C ,232-H ) :   0.8588 B(233-C ,234-C ) :   1.3481 B(233-C ,238-C ) :   1.3888 
B(234-C ,235-C ) :   1.3639 B(234-C ,239-H ) :   0.9838 B(235-C ,236-C ) :   1.3600 
B(235-C ,240-H ) :   0.9838 B(236-C ,237-C ) :   1.3774 B(236-C ,243-C ) :   1.0623 
B(237-C ,238-C ) :   1.3398 B(237-C ,241-H ) :   0.9804 B(238-C ,242-H ) :   0.9849 
B(243-C ,244-C ) :   1.0769 B(243-C ,245-H ) :   0.8827 B(243-C ,246-H ) :   0.8669 
B(244-C ,247-C ) :   1.3190 B(244-C ,251-C ) :   1.4116 B(247-C ,248-C ) :   1.3915 
B(247-C ,254-H ) :   0.9834 B(248-C ,249-C ) :   1.3678 B(248-C ,273-C ) :   1.0498 
B(249-C ,250-C ) :   1.3799 B(249-C ,268-C ) :   1.0478 B(250-C ,251-C ) :   1.3421 
B(250-C ,253-H ) :   0.9882 B(251-C ,252-C ) :   0.9600 B(252-C ,255-C ) :   1.3702 
B(252-C ,259-C ) :   1.3731 B(255-C ,256-C ) :   1.3667 B(255-C ,260-H ) :   0.9803 
B(256-C ,257-C ) :   1.3561 B(256-C ,261-H ) :   0.9849 B(257-C ,258-C ) :   1.3647 
B(257-C ,264-C ) :   1.0560 B(258-C ,259-C ) :   1.3568 B(258-C ,262-H ) :   0.9846 
B(259-C ,263-H ) :   0.9817 B(264-C ,265-Cl) :   1.0184 B(264-C ,266-H ) :   0.9366 
B(264-C ,267-H ) :   0.9366 B(268-C ,269-C ) :   1.0509 B(268-C ,270-H ) :   0.8885 
B(268-C ,271-H ) :   0.8417 B(269-C ,272-C ) :   1.3775 B(269-C ,276-C ) :   1.3905 
B(272-C ,273-C ) :   1.0483 B(272-C ,279-C ) :   1.3970 B(273-C ,274-H ) :   0.8882 
B(273-C ,275-H ) :   0.8422 B(276-C ,277-C ) :   1.3578 B(276-C ,282-H ) :   0.9832 
B(277-C ,278-C ) :   1.3502 B(277-C ,281-H ) :   0.9802 B(278-C ,279-C ) :   1.3174 
B(278-C ,283-C ) :   1.0090 B(279-C ,280-H ) :   0.9795 B(283-C ,284-C ) :   1.3498 
B(283-C ,286-C ) :   1.2860 B(284-C ,285-C ) :   1.3733 B(284-C ,290-H ) :   0.9787 
B(285-C ,288-C ) :   1.3651 B(285-C ,289-H ) :   0.9755 B(286-C ,287-C ) :   1.4124 
B(286-C ,291-H ) :   0.9603 B(287-C ,288-C ) :   1.3744 B(287-C ,296-C ) :   1.0273 
B(288-C ,292-C ) :   1.0825 B(292-C ,293-Cl) :   1.0027 B(292-C ,294-H ) :   0.9202 
B(292-C ,295-H ) :   0.9326 B(296-C ,297-C ) :   1.0367 B(296-C ,298-H ) :   0.8749 
B(296-C ,299-H ) :   0.8611 B(297-C ,300-C ) :   1.3676 B(297-C ,304-C ) :   1.3746 
B(300-C ,301-C ) :   1.3612 B(300-C ,305-H ) :   0.9840 B(301-C ,302-C ) :   1.3637 
B(301-C ,323-H ) :   0.9821 B(302-C ,303-C ) :   1.3554 B(302-C ,306-C ) :   0.9825 
B(303-C ,304-C ) :   1.3550 B(303-C ,322-H ) :   0.9837 B(304-C ,321-H ) :   0.9846 
B(306-C ,307-C ) :   1.3355 B(306-C ,308-C ) :   1.3626 B(307-C ,309-C ) :   1.3724 
B(307-C ,312-H ) :   0.9859 B(308-C ,311-C ) :   1.3560 B(308-C ,313-H ) :   0.9810 
B(309-C ,310-C ) :   1.3942 B(309-C ,318-C ) :   1.0467 B(310-C ,311-C ) :   1.3850 
B(310-C ,315-C ) :   1.0490 B(311-C ,314-H ) :   0.9850 B(315-C ,316-H ) :   0.8877 
B(315-C ,317-H ) :   0.8481 B(318-C ,319-H ) :   0.8464 B(318-C ,320-H ) :   0.8869 


-------
TIMINGS
-------

Total SCF time: 0 days 0 hours 4 min 32 sec 

Total time                  ....     272.368 sec
Sum of individual times     ....     269.057 sec  ( 98.8%)

SCF preparation             ....       2.703 sec  (  1.0%)
Fock matrix formation       ....     164.013 sec  ( 60.2%)
  Startup                   ....       4.772 sec  (  2.9% of F)
  Split-RI-J                ....     112.875 sec  ( 68.8% of F)
  XC integration            ....      28.663 sec  ( 17.5% of F)
    XC Preparation          ....       0.000 sec  (  0.0% of XC)
    Basis function eval.    ....       6.539 sec  ( 22.8% of XC)
    Density eval.           ....       7.509 sec  ( 26.2% of XC)
    XC-Functional eval.     ....       0.558 sec  (  1.9% of XC)
    XC-Potential eval.      ....       4.544 sec  ( 15.9% of XC)
Diagonalization             ....       0.000 sec  (  0.0%)
Density matrix formation    ....      19.150 sec  (  7.0%)
Total Energy calculation    ....       4.525 sec  (  1.7%)
Population analysis         ....       2.908 sec  (  1.1%)
Orbital Transformation      ....       6.919 sec  (  2.5%)
Orbital Orthonormalization  ....       0.000 sec  (  0.0%)
DIIS solution               ....      30.552 sec  ( 11.2%)
SOSCF solution              ....      38.286 sec  ( 14.1%)
Finished LeanSCF after 273.4 sec

Maximum memory used throughout the entire LEANSCF-calculation: 661.9 MB


-------------------------------------------------------------------------------
                          DFT DISPERSION CORRECTION                            
                                                                               
                                DFTD4 V3.4.0                                   
-------------------------------------------------------------------------------
The PBE functional is recognized
Active option DFTDOPT                   ...         5   

-------------------------   ----------------
Dispersion correction           -0.632106580
-------------------------   ----------------


-------------------------   --------------------
FINAL SINGLE POINT ENERGY     -9763.336754464115
-------------------------   --------------------

--------------------------------------------------------------------------
WARNING: There was an error initializing an OpenFabrics device.

  Local host:   ga00
  Local device: mlx5_0
--------------------------------------------------------------------------
[ga00:2740807] [[60887,0],0] ORTE_ERROR_LOG: Data unpack would read past end of buffer in file util/show_help.c at line 513


           ************************************************************
           *        Program running with 32 parallel MPI-processes    *
           *              working on a common directory               *
           ************************************************************
[ga00:2740807] 30 more processes have sent help message help-mpi-btl-openib.txt / error in device init
[ga00:2740807] Set MCA parameter "orte_base_help_aggregate" to 0 to see all help / error messages
