28
	Energy:      41.5073581
C         -4.52506        0.51622       -0.03357
C         -3.01593        0.61787       -0.02469
C         -2.32485        1.83873       -0.03147
C         -0.92716        1.86840       -0.02266
C         -0.15954        0.67765       -0.00669
C         -0.87785       -0.54317       -0.00009
C         -2.27468       -0.56751       -0.00892
C          1.35828        0.70833        0.00285
C          2.07729        1.92915       -0.00294
C          3.47503        1.95600        0.00584
C          4.21475        0.76405        0.02076
C          2.12521       -0.48246        0.01795
C          3.52189       -0.45033        0.02666
C          5.72675        0.72348        0.03082
H         -2.85071        2.78294       -0.04361
H         -0.48095        2.84716       -0.02884
H         -0.39371       -1.50363        0.01196
H         -2.78336       -1.52443       -0.00338
H          1.59199        2.88908       -0.01421
H          3.96241        2.92069        0.00076
H          4.06871       -1.38592        0.03814
H          1.68017       -1.46171        0.02339
Cl        -5.39534        2.07854       -0.05368
H         -4.85480       -0.03895        0.86996
H         -4.84307       -0.05560       -0.93089
Cl         6.53335        2.31971        0.02239
H          6.07885        0.16586       -0.86270
H          6.06729        0.18120        0.93816
