      -----------------------------------------------------------      
     |                   =====================                   |     
     |                           x T B                           |     
     |                   =====================                   |     
     |                         S. Grimme                         |     
     |          Mulliken Center for Theoretical Chemistry        |     
     |                    University of Bonn                     |     
      -----------------------------------------------------------      

   * xtb version 6.7.1 (edcfbbe) compiled by 'albert@albert-system' on 2024-07-22

   xtb is free software: you can redistribute it and/or modify it under
   the terms of the GNU Lesser General Public License as published by
   the Free Software Foundation, either version 3 of the License, or
   (at your option) any later version.
   
   xtb is distributed in the hope that it will be useful,
   but WITHOUT ANY WARRANTY; without even the implied warranty of
   MERCHANTABILITY or FITNESS FOR A PARTICULAR PURPOSE.  See the
   GNU Lesser General Public License for more details.
   
   Cite this work as:
   * C. Bannwarth, E. Caldeweyher, S. Ehlert, A. Hansen, P. Pracht,
     J. Seibert, S. Spicher, S. Grimme, WIREs Comput. Mol. Sci., 2020, 11,
     e01493. DOI: 10.1002/wcms.1493
   
   for GFN2-xTB:
   * C. Bannwarth, S. Ehlert and S. Grimme., J. Chem. Theory Comput., 2019,
     15, 1652-1671. DOI: 10.1021/acs.jctc.8b01176
   for GFN1-xTB:
   * S. Grimme, C. Bannwarth, P. Shushkov, J. Chem. Theory Comput., 2017,
     13, 1989-2009. DOI: 10.1021/acs.jctc.7b00118
   for GFN0-xTB:
   * P. Pracht, E. Caldeweyher, S. Ehlert, S. Grimme, ChemRxiv, 2019, preprint.
     DOI: 10.26434/chemrxiv.8326202.v1
   for GFN-FF:
   * S. Spicher and S. Grimme, Angew. Chem. Int. Ed., 2020, 59, 15665-15673.
     DOI: 10.1002/anie.202004239
   
   for ALPB and GBSA implicit solvation:
   * S. Ehlert, M. Stahn, S. Spicher, S. Grimme, J. Chem. Theory Comput.,
     2021, 17, 4250-4261. DOI: 10.1021/acs.jctc.1c00471
   
   for ddCOSMO and CPCM-X implicit solvation:
   * M. Stahn, S. Ehlert, S. Grimme, J. Phys. Chem. A,
     2023, XX, XXXX-XXXX. DOI: 10.1021/acs.jpca.3c04382
   
   for DFT-D4:
   * E. Caldeweyher, C. Bannwarth and S. Grimme, J. Chem. Phys., 2017,
     147, 034112. DOI: 10.1063/1.4993215
   * E. Caldeweyher, S. Ehlert, A. Hansen, H. Neugebauer, S. Spicher,
     C. Bannwarth and S. Grimme, J. Chem. Phys., 2019, 150, 154122.
     DOI: 10.1063/1.5090222
   * E. Caldeweyher, J.-M. Mewes, S. Ehlert and S. Grimme, Phys. Chem. Chem. Phys.
     2020, 22, 8499-8512. DOI: 10.1039/D0CP00502A
   
   for sTDA-xTB:
   * S. Grimme and C. Bannwarth, J. Chem. Phys., 2016, 145, 054103.
     DOI: 10.1063/1.4959605
   
   in the mass-spec context:
   * V. Asgeirsson, C. Bauer and S. Grimme, Chem. Sci., 2017, 8, 4879.
     DOI: 10.1039/c7sc00601b
   * J. Koopman and S. Grimme, ACS Omega 2019, 4, 12, 15120-15133.
     DOI: 10.1021/acsomega.9b02011
   
   for metadynamics refer to:
   * S. Grimme, J. Chem. Theory Comput., 2019, 155, 2847-2862
     DOI: 10.1021/acs.jctc.9b00143
   
   for SPH calculations refer to:
   * S. Spicher and S. Grimme, J. Chem. Theory Comput., 2021, 17, 1701-1714
     DOI: 10.1021/acs.jctc.0c01306
   
   for ONIOM refer to:
   * C. Plett, A. Katbashev, S. Ehlert, S. Grimme, M. Bursch,
     Phys. Chem. Chem. Phys., 2023, 25, 17860-17868. DOI: 10.1039/D3CP02178E
   
   for DIPRO refer to:
   * J. Kohn, N. Gildemeister, S. Grimme, D. Fazzi, A. Hansen,
     J. Chem. Phys., 2023, just accepted.
   
   for PTB refer to:
   * S. Grimme, M. Mueller, A. Hansen, J. Chem. Phys., 2023, 158, 124111.
     DOI: 10.1063/5.0137838
   
   with help from (in alphabetical order)
   P. Atkinson, C. Bannwarth, F. Bohle, G. Brandenburg, E. Caldeweyher
   M. Checinski, S. Dohm, S. Ehlert, S. Ehrlich, I. Gerasimov, C. Hölzer
   A. Katbashev, J. Kohn, J. Koopman, C. Lavigne, S. Lehtola, F. März, M. Müller,
   F. Musil, H. Neugebauer, J. Pisarek, C. Plett, P. Pracht, F. Pultar,
   J. Seibert, P. Shushkov, S. Spicher, M. Stahn, M. Steiner, T. Strunk,
   J. Stückrath, T. Rose, and J. Unsleber
   
 * started run on 2025/09/03 at 13:01:46.853     
   ID    Z sym.   atoms
    1    6 C      1-6, 11, 15-19, 21, 23, 24, 27-31, 35-40, 45, 49, 50, 53,
                  54, 57-60, 64-68, 71, 74, 75, 78-82, 87-92, 95, 96, 99-103,
                  107-112, 117, 121, 122, 125-129, 134-139, 143-146, 151-154,
                  157-162, 167, 171-174, 177, 180-183, 186-191, 196-199,
                  202-204, 210-215, 219, 220, 223-227, 231, 234-239, 244,
                  245, 248-253, 256-260, 265, 269, 270, 273, 274, 277-280,
                  284-289, 293, 297, 298, 301-305, 307-312, 316, 319
    2    1 H      7-10, 13, 14, 20, 22, 25, 26, 32-34, 41-44, 47, 48, 51, 52,
                  55, 56, 61-63, 69, 70, 72, 73, 76, 77, 83-86, 93, 94, 97,
                  98, 104-106, 113-116, 119, 120, 123, 124, 130-133, 140-142,
                  147-150, 155, 156, 163-166, 169, 170, 175, 176, 178, 179,
                  184, 185, 192-195, 200, 201, 205-209, 216-218, 221, 222,
                  228-230, 232, 233, 240-243, 246, 247, 254, 255, 261-264,
                  267, 268, 271, 272, 275, 276, 281-283, 290-292, 295, 296,
                  299, 300, 306, 313-315, 317, 318, 320-324
    3   17 Cl     12, 46, 118, 168, 266, 294

           -------------------------------------------------
          |                Calculation Setup                |
           -------------------------------------------------

          program call               : xtb xtbopt.xyz --opt tight --gfn 2 --chrg -1 --uhf 0
          hostname                   : ga00
          coordinate file            : xtbopt.xyz
          omp threads                :                    10


           -------------------------------------------------
          |                 G F N 2 - x T B                 |
           -------------------------------------------------

        Reference                      10.1021/acs.jctc.8b01176
      * Hamiltonian:
        H0-scaling (s, p, d)           1.850000    2.230000    2.230000
        zeta-weighting                 0.500000
      * Dispersion:
        s8                             2.700000
        a1                             0.520000
        a2                             5.000000
        s9                             5.000000
      * Repulsion:
        kExp                           1.500000    1.000000
        rExp                           1.000000
      * Coulomb:
        alpha                          2.000000
        third order                    shell-resolved
        anisotropic                    true
        a3                             3.000000
        a5                             4.000000
        cn-shift                       1.200000
        cn-exp                         4.000000
        max-rad                        5.000000


          ...................................................
          :                      SETUP                      :
          :.................................................:
          :  # basis functions                 924          :
          :  # atomic orbitals                 918          :
          :  # shells                          518          :
          :  # electrons                       907          :
          :  max. iterations                   250          :
          :  Hamiltonian                  GFN2-xTB          :
          :  restarted?                      false          :
          :  GBSA solvation                  false          :
          :  PC potential                    false          :
          :  electronic temp.          300.0000000     K    :
          :  accuracy                    1.0000000          :
          :  -> integral cutoff          0.2500000E+02      :
          :  -> integral neglect         0.1000000E-07      :
          :  -> SCF convergence          0.1000000E-05 Eh   :
          :  -> wf. convergence          0.1000000E-03 e    :
          :  Broyden damping             0.4000000          :
          :  net charge                         -1          :
          :  unpaired electrons                  0          :
          ...................................................

 iter      E             dE          RMSdq      gap      omega  full diag
   1   -495.2285187 -0.495229E+03  0.396E+00    0.17       0.0  T
   2   -495.4610107 -0.232492E+00  0.237E+00    0.14       1.0  T
   3   -494.4257200  0.103529E+01  0.132E+00    0.30       1.0  T
   4   -495.4527350 -0.102702E+01  0.524E-01    0.15       1.0  T
   5   -495.4805781 -0.278430E-01  0.394E-01    0.19       1.0  T
   6   -495.5546913 -0.741133E-01  0.279E-01    0.00       1.0  T
   7   -495.5352937  0.193977E-01  0.303E-01    0.06       1.0  T
   8   -495.5807781 -0.454845E-01  0.186E-01    0.04       1.0  T
   9   -495.5166010  0.641771E-01  0.319E-01    0.16       1.0  T
  10   -495.5737163 -0.571153E-01  0.173E-01    0.04       1.0  T
  11   -495.5915823 -0.178660E-01  0.119E-01    0.02       1.0  T
  12   -495.5744149  0.171674E-01  0.143E-01    0.04       1.0  T
  13   -495.5944433 -0.200284E-01  0.839E-02    0.01       1.0  T
  14   -495.5899405  0.450284E-02  0.991E-02    0.03       1.0  T
  15   -495.5959813 -0.604076E-02  0.718E-02    0.03       1.0  T
  16   -495.5937269  0.225432E-02  0.844E-02    0.02       1.0  T
  17   -495.5958703 -0.214335E-02  0.700E-02    0.03       1.0  T
  18   -495.6004207 -0.455039E-02  0.373E-02    0.01       1.0  T
  19   -495.6010272 -0.606521E-03  0.281E-02    0.01       1.0  T
  20   -495.6006667  0.360466E-03  0.340E-02    0.01       1.0  T
  21   -495.6017425 -0.107581E-02  0.129E-02    0.00       1.0  T
  22   -495.6017947 -0.521322E-04  0.106E-02    0.00       1.0  T
  23   -495.6018846 -0.899567E-04  0.634E-03    0.00       1.0  T
  24   -495.6019186 -0.339854E-04  0.214E-03    0.00       2.6  T
  25   -495.6019216 -0.302291E-05  0.130E-03    0.00       4.3  T
  26   -495.6019227 -0.104626E-05  0.871E-04    0.00       6.4  T
  27   -495.6019232 -0.476876E-06  0.567E-04    0.00       9.8  T
  28   -495.6019229  0.204104E-06  0.634E-04    0.00       8.8  T

   *** convergence criteria satisfied after 28 iterations ***

         #    Occupation            Energy/Eh            Energy/eV
      -------------------------------------------------------------
         1        2.0000           -1.0066376             -27.3920
       ...           ...                  ...                  ...
       448        2.0000           -0.3273143              -8.9067
       449        2.0000           -0.3249562              -8.8425
       450        2.0000           -0.3246757              -8.8349
       451        2.0000           -0.3226403              -8.7795
       452        2.0000           -0.3221912              -8.7673
       453        2.0000           -0.3208036              -8.7295
       454        0.2578           -0.1945910              -5.2951 (HOMO)
       455        0.2505           -0.1945545              -5.2941 (LUMO)
       456        0.1625           -0.1940377              -5.2800
       457        0.1114           -0.1936231              -5.2688
       458        0.0698           -0.1931346              -5.2555
       459        0.0599           -0.1929796              -5.2512
       ...           ...                  ...                  ...
       918                          0.7492396              20.3878
      -------------------------------------------------------------
                  HL-Gap            0.0000364 Eh            0.0010 eV
             Fermi-level           -0.2266464 Eh           -6.1674 eV

 SCC (total)                   0 d,  0 h,  0 min,  2.073 sec
 SCC setup                      ...        0 min,  0.003 sec (  0.121%)
 Dispersion                     ...        0 min,  0.024 sec (  1.174%)
 classical contributions        ...        0 min,  0.000 sec (  0.019%)
 integral evaluation            ...        0 min,  0.058 sec (  2.775%)
 iterations                     ...        0 min,  1.793 sec ( 86.487%)
 molecular gradient             ...        0 min,  0.173 sec (  8.352%)
 printout                       ...        0 min,  0.022 sec (  1.069%)

         :::::::::::::::::::::::::::::::::::::::::::::::::::::
         ::                     SUMMARY                     ::
         :::::::::::::::::::::::::::::::::::::::::::::::::::::
         :: total energy            -486.898109497587 Eh    ::
         :: gradient norm              0.037940693455 Eh/a0 ::
         :: HOMO-LUMO gap              0.000991166467 eV    ::
         ::.................................................::
         :: SCC energy              -495.587064113083 Eh    ::
         :: -> isotropic ES            0.082928407324 Eh    ::
         :: -> anisotropic ES          0.059041591270 Eh    ::
         :: -> anisotropic XC          0.258948832911 Eh    ::
         :: -> dispersion             -0.524100409680 Eh    ::
         :: repulsion energy           8.688954615496 Eh    ::
         :: add. restraining           0.000000000000 Eh    ::
         :: total charge              -0.999999999997 e     ::
         :::::::::::::::::::::::::::::::::::::::::::::::::::::

      ----------------------------------------------------------- 
     |                   =====================                   |
     |                        A N C O P T                        |
     |                   =====================                   |
     |               Approximate Normal Coordinate               |
     |                Rational Function Optimizer                |
      ----------------------------------------------------------- 
      ----------------------------------------------------------- 
     |                   =====================                   |
     |                        A N C O P T                        |
     |                   =====================                   |
     |               Approximate Normal Coordinate               |
     |                Rational Function Optimizer                |
      ----------------------------------------------------------- 

          ...................................................
          :                      SETUP                      :
          :.................................................:
          :   optimization level             tight          :
          :   max. optcycles                  1620          :
          :   ANC micro-cycles                  20          :
          :   degrees of freedom               966          :
          :.................................................:
          :   RF solver                   davidson          :
          :   write xtbopt.log                true          :
          :   linear?                        false          :
          :   energy convergence         0.1000000E-05 Eh   :
          :   grad. convergence          0.8000000E-03 Eh/α :
          :   maxmium RF displ.          1.0000000          :
          :   Hlow (freq-cutoff)         0.1000000E-01      :
          :   Hmax (freq-cutoff)         5.0000000          :
          :   S6 in model hess.         20.0000000          :
          ...................................................

generating ANC from exact Hessian ...
Using Lindh-Hessian (1995)
 Shifting diagonal of input Hessian by   1.002666908357783E-002
 Lowest  eigenvalues of input Hessian
    0.010000    0.010019    0.000000    0.000000    0.000000    0.000000
    0.000000    0.000000    0.010039    0.010047    0.010054    0.010072
    0.010082    0.010088    0.010100    0.010132    0.010147    0.010156
 Highest eigenvalues
    2.077925    2.079547    2.087270    2.088380    2.091752    2.093452
 

........................................................................
.............................. CYCLE    1 ..............................
........................................................................

 iter      E             dE          RMSdq      gap      omega  full diag
   1   -495.6019234 -0.495602E+03  0.170E-04    0.00       0.0  T
   2   -495.6019200  0.337920E-05  0.159E-03    0.00       3.5  T
   3   -495.6019233 -0.322367E-05  0.355E-04    0.00      15.7  T
   4   -495.6019234 -0.163719E-06  0.141E-04    0.00      39.3  T
   5   -495.6019234 -0.101064E-07  0.103E-04    0.00      53.8  T
     SCC iter.                  ...        0 min,  0.326 sec
     gradient                   ...        0 min,  0.177 sec
 * total energy  :  -486.8981100 Eh     change       -0.4991506E-06 Eh
   gradient norm :     0.0379313 Eh/α   predicted     0.0000000E+00 (-100.00%)
   displ. norm   :     0.0962387 α      lambda       -0.1214004E-02
   maximum displ.:     0.0144472 α      in ANC's #49, #63, #98, ...

........................................................................
.............................. CYCLE    2 ..............................
........................................................................

 iter      E             dE          RMSdq      gap      omega  full diag
   1   -495.5863044 -0.495586E+03  0.358E-02    0.01       0.0  T
   2   -495.5643427  0.219617E-01  0.148E-01    0.04       1.0  T
   3   -495.5807381 -0.163955E-01  0.827E-02    0.01       1.0  T
   4   -495.5858164 -0.507825E-02  0.355E-02    0.02       1.0  T
   5   -495.5852331  0.583319E-03  0.401E-02    0.01       1.0  T
   6   -495.5861065 -0.873475E-03  0.329E-02    0.01       1.0  T
   7   -495.5864032 -0.296668E-03  0.283E-02    0.02       1.0  T
   8   -495.5864521 -0.488654E-04  0.285E-02    0.00       1.0  T
   9   -495.5869878 -0.535782E-03  0.174E-02    0.01       1.0  T
  10   -495.5873299 -0.342027E-03  0.413E-03    0.00       1.3  T
  11   -495.5873456 -0.156878E-04  0.138E-03    0.00       4.0  T
  12   -495.5873462 -0.691226E-06  0.911E-04    0.00       6.1  T
  13   -495.5873457  0.529607E-06  0.107E-03    0.00       5.2  T
  14   -495.5873464 -0.711179E-06  0.589E-04    0.00       9.4  T
     SCC iter.                  ...        0 min,  0.890 sec
     gradient                   ...        0 min,  0.170 sec
 * total energy  :  -486.8989745 Eh     change       -0.8645462E-03 Eh
   gradient norm :     0.0188230 Eh/α   predicted    -0.6126377E-03 ( -29.14%)
   displ. norm   :     0.1362050 α      lambda       -0.6219352E-03
   maximum displ.:     0.0319633 α      in ANC's #49, #88, #33, ...

........................................................................
.............................. CYCLE    3 ..............................
........................................................................

 iter      E             dE          RMSdq      gap      omega  full diag
   1   -495.5780743 -0.495578E+03  0.396E-02    0.01       0.0  T
   2   -495.5539612  0.241131E-01  0.156E-01    0.04       1.0  T
   3   -495.5708577 -0.168964E-01  0.935E-02    0.01       1.0  T
   4   -495.5773899 -0.653225E-02  0.400E-02    0.02       1.0  T
   5   -495.5757236  0.166632E-02  0.515E-02    0.02       1.0  T
   6   -495.5774554 -0.173182E-02  0.381E-02    0.01       1.0  T
   7   -495.5777525 -0.297142E-03  0.374E-02    0.02       1.0  T
   8   -495.5782073 -0.454780E-03  0.311E-02    0.00       1.0  T
   9   -495.5785310 -0.323670E-03  0.233E-02    0.01       1.0  T
  10   -495.5792179 -0.686870E-03  0.436E-03    0.00       1.3  T
  11   -495.5792209 -0.306920E-05  0.338E-03    0.00       1.6  T
  12   -495.5792333 -0.123348E-04  0.170E-03    0.00       3.3  T
  13   -495.5792343 -0.100727E-05  0.112E-03    0.00       4.9  T
  14   -495.5792345 -0.228750E-06  0.758E-04    0.00       7.3  T
  15   -495.5792346 -0.846545E-07  0.499E-04    0.00      11.1  T
     SCC iter.                  ...        0 min,  0.965 sec
     gradient                   ...        0 min,  0.171 sec
 * total energy  :  -486.8993587 Eh     change       -0.3841809E-03 Eh
   gradient norm :     0.0060572 Eh/α   predicted    -0.3167547E-03 ( -17.55%)
   displ. norm   :     0.1097130 α      lambda       -0.1508479E-03
   maximum displ.:     0.0300378 α      in ANC's #49, #33, #88, ...

........................................................................
.............................. CYCLE    4 ..............................
........................................................................

 iter      E             dE          RMSdq      gap      omega  full diag
   1   -495.5795352 -0.495580E+03  0.210E-02    0.01       0.0  T
   2   -495.5713875  0.814771E-02  0.886E-02    0.02       1.0  T
   3   -495.5789974 -0.760988E-02  0.239E-02    0.01       1.0  T
   4   -495.5751601  0.383722E-02  0.567E-02    0.03       1.0  T
   5   -495.5786808 -0.352063E-02  0.323E-02    0.01       1.0  T
   6   -495.5789730 -0.292250E-03  0.279E-02    0.00       1.0  T
   7   -495.5796277 -0.654697E-03  0.106E-02    0.00       1.0  T
   8   -495.5796983 -0.705680E-04  0.480E-03    0.01       1.2  T
   9   -495.5796674  0.309034E-04  0.701E-03    0.00       1.0  T
  10   -495.5796994 -0.320445E-04  0.470E-03    0.00       1.2  T
  11   -495.5797232 -0.238030E-04  0.125E-03    0.00       4.4  T
  12   -495.5797238 -0.529705E-06  0.879E-04    0.00       6.3  T
  13   -495.5797238 -0.222180E-07  0.653E-04    0.00       8.5  T
     SCC iter.                  ...        0 min,  0.842 sec
     gradient                   ...        0 min,  0.173 sec
 * total energy  :  -486.8994776 Eh     change       -0.1189229E-03 Eh
   gradient norm :     0.0059912 Eh/α   predicted    -0.7877609E-04 ( -33.76%)
   displ. norm   :     0.1878173 α      lambda       -0.1729704E-03
   maximum displ.:     0.0553457 α      in ANC's #33, #49, #45, ...

........................................................................
.............................. CYCLE    5 ..............................
........................................................................

 iter      E             dE          RMSdq      gap      omega  full diag
   1   -495.5820389 -0.495582E+03  0.293E-02    0.00       0.0  T
   2   -495.5741700  0.786893E-02  0.915E-02    0.01       1.0  T
   3   -495.5812432 -0.707321E-02  0.308E-02    0.01       1.0  T
   4   -495.5654208  0.158224E-01  0.112E-01    0.05       1.0  T
   5   -495.5795936 -0.141729E-01  0.508E-02    0.01       1.0  T
   6   -495.5809884 -0.139477E-02  0.310E-02    0.01       1.0  T
   7   -495.5818834 -0.894987E-03  0.175E-02    0.01       1.0  T
   8   -495.5820824 -0.198979E-03  0.113E-02    0.00       1.0  T
   9   -495.5822047 -0.122354E-03  0.571E-03    0.00       1.0  T
  10   -495.5822257 -0.209713E-04  0.331E-03    0.00       1.7  T
  11   -495.5822334 -0.765401E-05  0.172E-03    0.00       3.2  T
  12   -495.5822345 -0.115265E-05  0.111E-03    0.00       5.0  T
  13   -495.5822347 -0.152867E-06  0.797E-04    0.00       7.0  T
  14   -495.5822349 -0.226846E-06  0.474E-04    0.00      11.7  T
     SCC iter.                  ...        0 min,  0.891 sec
     gradient                   ...        0 min,  0.173 sec
 * total energy  :  -486.8995978 Eh     change       -0.1201290E-03 Eh
   gradient norm :     0.0058412 Eh/α   predicted    -0.8964927E-04 ( -25.37%)
   displ. norm   :     0.1766758 α      lambda       -0.1015491E-03
   maximum displ.:     0.0581818 α      in ANC's #33, #49, #45, ...

........................................................................
.............................. CYCLE    6 ..............................
........................................................................

 iter      E             dE          RMSdq      gap      omega  full diag
   1   -495.5837877 -0.495584E+03  0.242E-02    0.00       0.0  T
   2   -495.5821482  0.163953E-02  0.450E-02    0.01       1.0  T
   3   -495.5831760 -0.102778E-02  0.273E-02    0.00       1.0  T
   4   -495.5786767  0.449927E-02  0.660E-02    0.03       1.0  T
   5   -495.5799838 -0.130705E-02  0.535E-02    0.02       1.0  T
   6   -495.5833934 -0.340968E-02  0.187E-02    0.01       1.0  T
   7   -495.5836436 -0.250202E-03  0.118E-02    0.00       1.0  T
   8   -495.5838020 -0.158356E-03  0.509E-03    0.00       1.1  T
   9   -495.5838227 -0.207083E-04  0.235E-03    0.00       2.4  T
  10   -495.5838252 -0.253836E-05  0.152E-03    0.00       3.7  T
  11   -495.5838264 -0.114749E-05  0.865E-04    0.00       6.4  T
  12   -495.5838268 -0.425960E-06  0.605E-04    0.00       9.2  T
  13   -495.5838268 -0.904032E-08  0.530E-04    0.00      10.5  T
     SCC iter.                  ...        0 min,  0.843 sec
     gradient                   ...        0 min,  0.170 sec
 * total energy  :  -486.8996747 Eh     change       -0.7691585E-04 Eh
   gradient norm :     0.0048405 Eh/α   predicted    -0.5241487E-04 ( -31.85%)
   displ. norm   :     0.2316936 α      lambda       -0.1083758E-03
   maximum displ.:     0.0837444 α      in ANC's #33, #49, #45, ...

........................................................................
.............................. CYCLE    7 ..............................
........................................................................

 iter      E             dE          RMSdq      gap      omega  full diag
   1   -495.5843801 -0.495584E+03  0.311E-02    0.00       0.0  T
   2   -495.5807190  0.366109E-02  0.573E-02    0.03       1.0  T
   3   -495.5799877  0.731356E-03  0.569E-02    0.01       1.0  T
   4   -495.5773019  0.268572E-02  0.749E-02    0.02       1.0  T
   5   -495.5800338 -0.273186E-02  0.675E-02    0.00       1.0  T
   6   -495.5842836 -0.424981E-02  0.132E-02    0.00       1.0  T
   7   -495.5842642  0.194255E-04  0.121E-02    0.00       1.0  T
   8   -495.5843762 -0.112009E-03  0.665E-03    0.00       1.0  T
   9   -495.5843756  0.552557E-06  0.664E-03    0.00       1.0  T
  10   -495.5844155 -0.398660E-04  0.291E-03    0.00       1.9  T
  11   -495.5844221 -0.662790E-05  0.129E-03    0.00       4.3  T
  12   -495.5844228 -0.656684E-06  0.811E-04    0.00       6.9  T
  13   -495.5844235 -0.712620E-06  0.301E-04    0.00      18.5  T
     SCC iter.                  ...        0 min,  0.834 sec
     gradient                   ...        0 min,  0.172 sec
 * total energy  :  -486.8997541 Eh     change       -0.7942481E-04 Eh
   gradient norm :     0.0046913 Eh/α   predicted    -0.5710651E-04 ( -28.10%)
   displ. norm   :     0.2250565 α      lambda       -0.8718993E-04
   maximum displ.:     0.0888515 α      in ANC's #33, #45, #49, ...

........................................................................
.............................. CYCLE    8 ..............................
........................................................................

 iter      E             dE          RMSdq      gap      omega  full diag
   1   -495.5838913 -0.495584E+03  0.304E-02    0.00       0.0  T
   2   -495.5795586  0.433271E-02  0.593E-02    0.03       1.0  T
   3   -495.5785913  0.967320E-03  0.617E-02    0.02       1.0  T
   4   -495.5754579  0.313341E-02  0.900E-02    0.02       1.0  T
   5   -495.5828905 -0.743259E-02  0.339E-02    0.01       1.0  T
   6   -495.5838263 -0.935837E-03  0.110E-02    0.00       1.0  T
   7   -495.5838938 -0.674637E-04  0.731E-03    0.00       1.0  T
   8   -495.5837682  0.125546E-03  0.125E-02    0.00       1.0  T
   9   -495.5838867 -0.118512E-03  0.780E-03    0.00       1.0  T
  10   -495.5839204 -0.336158E-04  0.491E-03    0.00       1.1  T
  11   -495.5839391 -0.187761E-04  0.254E-03    0.00       2.2  T
  12   -495.5839442 -0.503081E-05  0.112E-03    0.00       4.9  T
  13   -495.5839451 -0.973108E-06  0.509E-04    0.00      10.9  T
  14   -495.5839453 -0.201167E-06  0.404E-04    0.00      13.8  T
     SCC iter.                  ...        0 min,  0.893 sec
     gradient                   ...        0 min,  0.171 sec
 * total energy  :  -486.8998177 Eh     change       -0.6358402E-04 Eh
   gradient norm :     0.0049045 Eh/α   predicted    -0.4584365E-04 ( -27.90%)
   displ. norm   :     0.1897976 α      lambda       -0.6879342E-04
   maximum displ.:     0.0806449 α      in ANC's #33, #45, #38, ...

........................................................................
.............................. CYCLE    9 ..............................
........................................................................

 iter      E             dE          RMSdq      gap      omega  full diag
   1   -495.5832545 -0.495583E+03  0.259E-02    0.00       0.0  T
   2   -495.5783537  0.490075E-02  0.614E-02    0.03       1.0  T
   3   -495.5784821 -0.128410E-03  0.589E-02    0.02       1.0  T
   4   -495.5789098 -0.427735E-03  0.653E-02    0.01       1.0  T
   5   -495.5814610 -0.255114E-02  0.418E-02    0.00       1.0  T
   6   -495.5824542 -0.993229E-03  0.276E-02    0.00       1.0  T
   7   -495.5831992 -0.744943E-03  0.116E-02    0.00       1.0  T
   8   -495.5832620 -0.628786E-04  0.814E-03    0.00       1.0  T
   9   -495.5832809 -0.188420E-04  0.670E-03    0.00       1.0  T
  10   -495.5833139 -0.329913E-04  0.356E-03    0.00       1.6  T
  11   -495.5833256 -0.117513E-04  0.132E-03    0.00       4.2  T
  12   -495.5833259 -0.301705E-06  0.101E-03    0.00       5.5  T
  13   -495.5833268 -0.834082E-06  0.603E-04    0.00       9.2  T
  14   -495.5833262  0.579363E-06  0.914E-04    0.00       6.1  T
     SCC iter.                  ...        0 min,  0.913 sec
     gradient                   ...        0 min,  0.170 sec
 * total energy  :  -486.8998666 Eh     change       -0.4893798E-04 Eh
   gradient norm :     0.0039184 Eh/α   predicted    -0.3563717E-04 ( -27.18%)
   displ. norm   :     0.1484108 α      lambda       -0.4793260E-04
   maximum displ.:     0.0666040 α      in ANC's #33, #29, #38, ...

........................................................................
.............................. CYCLE   10 ..............................
........................................................................

 iter      E             dE          RMSdq      gap      omega  full diag
   1   -495.5829196 -0.495583E+03  0.200E-02    0.00       0.0  T
   2   -495.5793899  0.352965E-02  0.522E-02    0.03       1.0  T
   3   -495.5795790 -0.189046E-03  0.492E-02    0.02       1.0  T
   4   -495.5809868 -0.140781E-02  0.438E-02    0.00       1.0  T
   5   -495.5810353 -0.484508E-04  0.425E-02    0.00       1.0  T
   6   -495.5825589 -0.152361E-02  0.191E-02    0.00       1.0  T
   7   -495.5828982 -0.339285E-03  0.900E-03    0.00       1.0  T
   8   -495.5829626 -0.644800E-04  0.421E-03    0.00       1.3  T
   9   -495.5829712 -0.857659E-05  0.293E-03    0.00       1.9  T
  10   -495.5829762 -0.496337E-05  0.161E-03    0.00       3.5  T
  11   -495.5829786 -0.242647E-05  0.734E-04    0.00       7.6  T
  12   -495.5829784  0.216600E-06  0.715E-04    0.00       7.8  T
  13   -495.5829787 -0.300100E-06  0.527E-04    0.00      10.5  T
     SCC iter.                  ...        0 min,  0.836 sec
     gradient                   ...        0 min,  0.175 sec
 * total energy  :  -486.8999005 Eh     change       -0.3391038E-04 Eh
   gradient norm :     0.0022282 Eh/α   predicted    -0.2449519E-04 ( -27.76%)
   displ. norm   :     0.1022279 α      lambda       -0.2778406E-04
   maximum displ.:     0.0458548 α      in ANC's #33, #29, #25, ...

........................................................................
.............................. CYCLE   11 ..............................
........................................................................

 iter      E             dE          RMSdq      gap      omega  full diag
   1   -495.5829357 -0.495583E+03  0.128E-02    0.00       0.0  T
   2   -495.5818182  0.111753E-02  0.312E-02    0.01       1.0  T
   3   -495.5822022 -0.384008E-03  0.247E-02    0.01       1.0  T
   4   -495.5806223  0.157986E-02  0.446E-02    0.01       1.0  T
   5   -495.5821132 -0.149091E-02  0.244E-02    0.01       1.0  T
   6   -495.5829035 -0.790226E-03  0.617E-03    0.00       1.0  T
   7   -495.5829172 -0.137867E-04  0.554E-03    0.00       1.0  T
   8   -495.5829477 -0.304119E-04  0.119E-03    0.00       4.7  T
   9   -495.5829486 -0.940830E-06  0.875E-04    0.00       6.3  T
  10   -495.5829487 -0.147738E-06  0.770E-04    0.00       7.2  T
     SCC iter.                  ...        0 min,  0.635 sec
     gradient                   ...        0 min,  0.170 sec
 * total energy  :  -486.8999207 Eh     change       -0.2019346E-04 Eh
   gradient norm :     0.0019066 Eh/α   predicted    -0.1403759E-04 ( -30.48%)
   displ. norm   :     0.1609649 α      lambda       -0.2445506E-04
   maximum displ.:     0.0693438 α      in ANC's #33, #25, #29, ...

........................................................................
.............................. CYCLE   12 ..............................
........................................................................

 iter      E             dE          RMSdq      gap      omega  full diag
   1   -495.5828960 -0.495583E+03  0.194E-02    0.00       0.0  T
   2   -495.5803017  0.259424E-02  0.491E-02    0.01       1.0  T
   3   -495.5816062 -0.130450E-02  0.333E-02    0.01       1.0  T
   4   -495.5744502  0.715603E-02  0.813E-02    0.04       1.0  T
   5   -495.5820381 -0.758792E-02  0.318E-02    0.00       1.0  T
   6   -495.5828225 -0.784382E-03  0.925E-03    0.00       1.0  T
   7   -495.5827359  0.865573E-04  0.117E-02    0.00       1.0  T
   8   -495.5829204 -0.184408E-03  0.215E-03    0.00       2.6  T
   9   -495.5829245 -0.416984E-05  0.102E-03    0.00       5.5  T
  10   -495.5829237  0.782705E-06  0.132E-03    0.00       4.2  T
  11   -495.5829252 -0.148846E-05  0.594E-04    0.00       9.4  T
  12   -495.5829253 -0.995861E-07  0.396E-04    0.00      14.0  T
  13   -495.5829255 -0.136647E-06  0.211E-04    0.00      26.4  T
     SCC iter.                  ...        0 min,  0.827 sec
     gradient                   ...        0 min,  0.170 sec
 * total energy  :  -486.8999435 Eh     change       -0.2276311E-04 Eh
   gradient norm :     0.0033118 Eh/α   predicted    -0.1237318E-04 ( -45.64%)
   displ. norm   :     0.0710895 α      lambda       -0.1589707E-04
   maximum displ.:     0.0306611 α      in ANC's #33, #25, #29, ...

........................................................................
.............................. CYCLE   13 ..............................
........................................................................

 iter      E             dE          RMSdq      gap      omega  full diag
   1   -495.5829304 -0.495583E+03  0.865E-03    0.00       0.0  T
   2   -495.5816782  0.125217E-02  0.333E-02    0.01       1.0  T
   3   -495.5827481 -0.106986E-02  0.123E-02    0.00       1.0  T
   4   -495.5815446  0.120345E-02  0.310E-02    0.02       1.0  T
   5   -495.5824766 -0.932029E-03  0.210E-02    0.00       1.0  T
   6   -495.5828957 -0.419036E-03  0.648E-03    0.00       1.0  T
   7   -495.5829369 -0.411967E-04  0.259E-03    0.00       2.1  T
   8   -495.5829413 -0.442193E-05  0.143E-03    0.00       3.9  T
   9   -495.5829418 -0.510435E-06  0.123E-03    0.00       4.5  T
  10   -495.5829433 -0.147320E-05  0.276E-04    0.00      20.1  T
  11   -495.5829433 -0.331197E-07  0.177E-04    0.00      31.4  T
  12   -495.5829433  0.180683E-07  0.183E-04    0.00      30.3  T
     SCC iter.                  ...        0 min,  0.763 sec
     gradient                   ...        0 min,  0.170 sec
 * total energy  :  -486.8999574 Eh     change       -0.1390131E-04 Eh
   gradient norm :     0.0026714 Eh/α   predicted    -0.7991076E-05 ( -42.52%)
   displ. norm   :     0.1890786 α      lambda       -0.3864710E-04
   maximum displ.:     0.0778847 α      in ANC's #33, #25, #29, ...

........................................................................
.............................. CYCLE   14 ..............................
........................................................................

 iter      E             dE          RMSdq      gap      omega  full diag
   1   -495.5830660 -0.495583E+03  0.222E-02    0.00       0.0  T
   2   -495.5781316  0.493444E-02  0.672E-02    0.02       1.0  T
   3   -495.5814924 -0.336083E-02  0.352E-02    0.01       1.0  T
   4   -495.5766568  0.483566E-02  0.680E-02    0.02       1.0  T
   5   -495.5810449 -0.438811E-02  0.419E-02    0.01       1.0  T
   6   -495.5830679 -0.202302E-02  0.769E-03    0.00       1.0  T
   7   -495.5830638  0.406323E-05  0.816E-03    0.00       1.0  T
   8   -495.5831256 -0.618121E-04  0.257E-03    0.00       2.2  T
   9   -495.5831288 -0.312320E-05  0.179E-03    0.00       3.1  T
  10   -495.5831310 -0.222285E-05  0.101E-03    0.00       5.5  T
  11   -495.5831317 -0.725136E-06  0.493E-04    0.00      11.3  T
  12   -495.5831317  0.319075E-07  0.413E-04    0.00      13.5  T
     SCC iter.                  ...        0 min,  0.762 sec
     gradient                   ...        0 min,  0.170 sec
 * total energy  :  -486.8999820 Eh     change       -0.2462344E-04 Eh
   gradient norm :     0.0011640 Eh/α   predicted    -0.2001699E-04 ( -18.71%)
   displ. norm   :     0.1536977 α      lambda       -0.1015376E-04
   maximum displ.:     0.0681640 α      in ANC's #33, #25, #29, ...

........................................................................
.............................. CYCLE   15 ..............................
........................................................................

 iter      E             dE          RMSdq      gap      omega  full diag
   1   -495.5826588 -0.495583E+03  0.177E-02    0.00       0.0  T
   2   -495.5809971  0.166166E-02  0.395E-02    0.02       1.0  T
   3   -495.5815235 -0.526345E-03  0.299E-02    0.01       1.0  T
   4   -495.5760582  0.546529E-02  0.679E-02    0.02       1.0  T
   5   -495.5808734 -0.481522E-02  0.413E-02    0.01       1.0  T
   6   -495.5825799 -0.170647E-02  0.917E-03    0.00       1.0  T
   7   -495.5826682 -0.883393E-04  0.305E-03    0.00       1.8  T
   8   -495.5826653  0.293631E-05  0.342E-03    0.00       1.6  T
   9   -495.5826740 -0.872692E-05  0.174E-03    0.00       3.2  T
  10   -495.5826770 -0.299394E-05  0.645E-04    0.00       8.6  T
  11   -495.5826773 -0.319130E-06  0.334E-04    0.00      16.7  T
  12   -495.5826772  0.108142E-06  0.375E-04    0.00      14.8  T
     SCC iter.                  ...        0 min,  0.766 sec
     gradient                   ...        0 min,  0.170 sec
 * total energy  :  -486.8999916 Eh     change       -0.9556969E-05 Eh
   gradient norm :     0.0014282 Eh/α   predicted    -0.5136323E-05 ( -46.26%)
   displ. norm   :     0.0834334 α      lambda       -0.7942599E-05
   maximum displ.:     0.0331385 α      in ANC's #33, #25, #29, ...

........................................................................
.............................. CYCLE   16 ..............................
........................................................................

 iter      E             dE          RMSdq      gap      omega  full diag
   1   -495.5832177 -0.495583E+03  0.939E-03    0.00       0.0  T
   2   -495.5823762  0.841481E-03  0.259E-02    0.01       1.0  T
   3   -495.5826733 -0.297117E-03  0.204E-02    0.01       1.0  T
   4   -495.5817251  0.948262E-03  0.350E-02    0.01       1.0  T
   5   -495.5823458 -0.620742E-03  0.268E-02    0.00       1.0  T
   6   -495.5832012 -0.855424E-03  0.488E-03    0.00       1.1  T
   7   -495.5832184 -0.171830E-04  0.280E-03    0.00       2.0  T
   8   -495.5832240 -0.553673E-05  0.129E-03    0.00       4.3  T
   9   -495.5832254 -0.146296E-05  0.918E-04    0.00       6.1  T
  10   -495.5832261 -0.656217E-06  0.349E-04    0.00      15.9  T
  11   -495.5832262 -0.888236E-07  0.173E-04    0.00      32.1  T
     SCC iter.                  ...        0 min,  0.698 sec
     gradient                   ...        0 min,  0.171 sec
 * total energy  :  -486.9000014 Eh     change       -0.9802160E-05 Eh
   gradient norm :     0.0013031 Eh/α   predicted    -0.3988403E-05 ( -59.31%)
   displ. norm   :     0.1783685 α      lambda       -0.1441063E-04
   maximum displ.:     0.0659917 α      in ANC's #25, #33, #29, ...

........................................................................
.............................. CYCLE   17 ..............................
........................................................................

 iter      E             dE          RMSdq      gap      omega  full diag
   1   -495.5831113 -0.495583E+03  0.209E-02    0.01       0.0  T
   2   -495.5774951  0.561624E-02  0.663E-02    0.01       1.0  T
   3   -495.5814172 -0.392210E-02  0.370E-02    0.02       1.0  T
   4   -495.5801927  0.122443E-02  0.512E-02    0.02       1.0  T
   5   -495.5785617  0.163102E-02  0.618E-02    0.00       1.0  T
   6   -495.5824338 -0.387207E-02  0.250E-02    0.01       1.0  T
   7   -495.5831115 -0.677708E-03  0.833E-03    0.00       1.0  T
   8   -495.5831853 -0.737855E-04  0.353E-03    0.00       1.6  T
   9   -495.5832015 -0.162245E-04  0.785E-04    0.00       7.1  T
  10   -495.5832013  0.247910E-06  0.781E-04    0.00       7.1  T
  11   -495.5832015 -0.261000E-06  0.715E-04    0.00       7.8  T
     SCC iter.                  ...        0 min,  0.706 sec
     gradient                   ...        0 min,  0.172 sec
 * total energy  :  -486.9000157 Eh     change       -0.1426665E-04 Eh
   gradient norm :     0.0011225 Eh/α   predicted    -0.7308378E-05 ( -48.77%)
   displ. norm   :     0.1360411 α      lambda       -0.7807774E-05
   maximum displ.:     0.0494245 α      in ANC's #25, #10, #33, ...

........................................................................
.............................. CYCLE   18 ..............................
........................................................................

 iter      E             dE          RMSdq      gap      omega  full diag
   1   -495.5838222 -0.495584E+03  0.140E-02    0.00       0.0  T
   2   -495.5817587  0.206350E-02  0.388E-02    0.01       1.0  T
   3   -495.5823440 -0.585241E-03  0.331E-02    0.02       1.0  T
   4   -495.5799530  0.239098E-02  0.577E-02    0.02       1.0  T
   5   -495.5821413 -0.218828E-02  0.375E-02    0.00       1.0  T
   6   -495.5838035 -0.166220E-02  0.610E-03    0.00       1.0  T
   7   -495.5838282 -0.247165E-04  0.323E-03    0.00       1.7  T
   8   -495.5838363 -0.807152E-05  0.219E-03    0.00       2.5  T
   9   -495.5838383 -0.198876E-05  0.159E-03    0.00       3.5  T
  10   -495.5838405 -0.221633E-05  0.820E-04    0.00       6.8  T
  11   -495.5838410 -0.572989E-06  0.276E-04    0.00      20.2  T
  12   -495.5838410  0.128362E-07  0.226E-04    0.00      24.6  T
     SCC iter.                  ...        0 min,  0.760 sec
     gradient                   ...        0 min,  0.170 sec
 * total energy  :  -486.9000246 Eh     change       -0.8919117E-05 Eh
   gradient norm :     0.0010282 Eh/α   predicted    -0.3938995E-05 ( -55.84%)
   displ. norm   :     0.1530393 α      lambda       -0.7788381E-05
   maximum displ.:     0.0542942 α      in ANC's #25, #10, #33, ...

........................................................................
.............................. CYCLE   19 ..............................
........................................................................

 iter      E             dE          RMSdq      gap      omega  full diag
   1   -495.5831786 -0.495583E+03  0.161E-02    0.00       0.0  T
   2   -495.5799999  0.317877E-02  0.507E-02    0.01       1.0  T
   3   -495.5823494 -0.234947E-02  0.270E-02    0.01       1.0  T
   4   -495.5787026  0.364679E-02  0.609E-02    0.03       1.0  T
   5   -495.5803706 -0.166801E-02  0.472E-02    0.01       1.0  T
   6   -495.5830891 -0.271848E-02  0.931E-03    0.00       1.0  T
   7   -495.5831756 -0.865502E-04  0.592E-03    0.00       1.0  T
   8   -495.5832082 -0.326038E-04  0.152E-03    0.00       3.6  T
   9   -495.5832098 -0.160171E-05  0.789E-04    0.00       7.0  T
  10   -495.5832102 -0.403778E-06  0.470E-04    0.00      11.8  T
  11   -495.5832103 -0.643260E-07  0.320E-04    0.00      17.3  T
     SCC iter.                  ...        0 min,  0.700 sec
     gradient                   ...        0 min,  0.173 sec
 * total energy  :  -486.9000325 Eh     change       -0.7892229E-05 Eh
   gradient norm :     0.0009419 Eh/α   predicted    -0.3936607E-05 ( -50.12%)
   displ. norm   :     0.1109811 α      lambda       -0.5999819E-05
   maximum displ.:     0.0396814 α      in ANC's #10, #25, #7, ...

........................................................................
.............................. CYCLE   20 ..............................
........................................................................

 iter      E             dE          RMSdq      gap      omega  full diag
   1   -495.5835206 -0.495584E+03  0.104E-02    0.00       0.0  T
   2   -495.5822948  0.122580E-02  0.318E-02    0.01       1.0  T
   3   -495.5830919 -0.797132E-03  0.190E-02    0.01       1.0  T
   4   -495.5825464  0.545525E-03  0.288E-02    0.00       1.0  T
   5   -495.5822668  0.279556E-03  0.319E-02    0.01       1.0  T
   6   -495.5834323 -0.116546E-02  0.912E-03    0.00       1.0  T
   7   -495.5835304 -0.980929E-04  0.176E-03    0.00       3.2  T
   8   -495.5835288  0.153513E-05  0.200E-03    0.00       2.8  T
   9   -495.5835319 -0.308306E-05  0.901E-04    0.00       6.2  T
  10   -495.5835328 -0.919455E-06  0.311E-04    0.00      17.9  T
  11   -495.5835329 -0.512867E-07  0.181E-04    0.00      30.6  T
     SCC iter.                  ...        0 min,  0.699 sec
     gradient                   ...        0 min,  0.170 sec
 * total energy  :  -486.9000387 Eh     change       -0.6191209E-05 Eh
   gradient norm :     0.0007066 Eh/α   predicted    -0.3017583E-05 ( -51.26%)
   displ. norm   :     0.0925105 α      lambda       -0.4785177E-05
   maximum displ.:     0.0344196 α      in ANC's #10, #7, #25, ...
 * RMSD in coord.:     0.1249612 α      energy gain  -0.1929161E-02 Eh

generating ANC from exact Hessian ...
Using Lindh-Hessian (1995)
 Shifting diagonal of input Hessian by   1.002684391996889E-002
 Lowest  eigenvalues of input Hessian
    0.010000    0.000000    0.000000    0.000000    0.000000    0.000000
    0.000000    0.010033    0.010039    0.010047    0.010054    0.010072
    0.010082    0.010087    0.010099    0.010130    0.010145    0.010155
 Highest eigenvalues
    2.077787    2.079910    2.088269    2.089573    2.091855    2.093649
 

........................................................................
.............................. CYCLE   21 ..............................
........................................................................

 iter      E             dE          RMSdq      gap      omega  full diag
   1   -495.5830902 -0.495583E+03  0.785E-03    0.00       0.0  T
   2   -495.5829555  0.134776E-03  0.123E-02    0.00       1.0  T
   3   -495.5828502  0.105240E-03  0.152E-02    0.00       1.0  T
   4   -495.5823723  0.477929E-03  0.249E-02    0.00       1.0  T
   5   -495.5829932 -0.620941E-03  0.899E-03    0.00       1.0  T
   6   -495.5830307 -0.375013E-04  0.660E-03    0.01       1.0  T
   7   -495.5830892 -0.584592E-04  0.188E-03    0.00       3.0  T
   8   -495.5830919 -0.267923E-05  0.111E-03    0.00       5.0  T
   9   -495.5830926 -0.731866E-06  0.654E-04    0.00       8.5  T
  10   -495.5830929 -0.303531E-06  0.444E-04    0.00      12.5  T
     SCC iter.                  ...        0 min,  0.633 sec
     gradient                   ...        0 min,  0.170 sec
 * total energy  :  -486.9000438 Eh     change       -0.5160035E-05 Eh
   gradient norm :     0.0006494 Eh/α   predicted     0.0000000E+00 (-100.00%)
   displ. norm   :     0.0167311 α      lambda       -0.1953317E-05
   maximum displ.:     0.0044748 α      in ANC's #53, #49, #10, ...

........................................................................
.............................. CYCLE   22 ..............................
........................................................................

 iter      E             dE          RMSdq      gap      omega  full diag
   1   -495.5831058 -0.495583E+03  0.206E-03    0.00       0.0  T
   2   -495.5830201  0.856761E-04  0.810E-03    0.01       1.0  T
   3   -495.5830815 -0.614207E-04  0.432E-03    0.00       1.3  T
   4   -495.5830887 -0.719030E-05  0.405E-03    0.01       1.4  T
   5   -495.5830723  0.164772E-04  0.512E-03    0.00       1.1  T
   6   -495.5831049 -0.326737E-04  0.116E-03    0.00       4.8  T
   7   -495.5831055 -0.528254E-06  0.111E-03    0.00       5.0  T
   8   -495.5831067 -0.125783E-05  0.170E-04    0.00      32.8  T
   9   -495.5831067 -0.519270E-08  0.149E-04    0.00      37.4  T
  10   -495.5831067 -0.141510E-07  0.875E-05    0.00      63.5  T
     SCC iter.                  ...        0 min,  0.634 sec
     gradient                   ...        0 min,  0.171 sec
 * total energy  :  -486.9000465 Eh     change       -0.2684902E-05 Eh
   gradient norm :     0.0003224 Eh/α   predicted    -0.1036674E-05 ( -61.39%)
   displ. norm   :     0.0610378 α      lambda       -0.4130609E-05
   maximum displ.:     0.0167467 α      in ANC's #49, #10, #53, ...

........................................................................
.............................. CYCLE   23 ..............................
........................................................................

 iter      E             dE          RMSdq      gap      omega  full diag
   1   -495.5834228 -0.495583E+03  0.631E-03    0.00       0.0  T
   2   -495.5822348  0.118800E-02  0.288E-02    0.02       1.0  T
   3   -495.5832695 -0.103467E-02  0.111E-02    0.00       1.0  T
   4   -495.5827868  0.482669E-03  0.231E-02    0.00       1.0  T
   5   -495.5832145 -0.427680E-03  0.136E-02    0.00       1.0  T
   6   -495.5834230 -0.208546E-03  0.266E-03    0.00       2.1  T
   7   -495.5834265 -0.351312E-05  0.172E-03    0.00       3.2  T
   8   -495.5834292 -0.271266E-05  0.741E-04    0.00       7.5  T
   9   -495.5834293 -0.740384E-07  0.729E-04    0.00       7.6  T
  10   -495.5834298 -0.438869E-06  0.271E-04    0.00      20.5  T
     SCC iter.                  ...        0 min,  0.633 sec
     gradient                   ...        0 min,  0.170 sec
 * total energy  :  -486.9000513 Eh     change       -0.4773027E-05 Eh
   gradient norm :     0.0006220 Eh/α   predicted    -0.2538178E-05 ( -46.82%)
   displ. norm   :     0.0458719 α      lambda       -0.1957043E-05
   maximum displ.:     0.0140858 α      in ANC's #10, #7, #49, ...

........................................................................
.............................. CYCLE   24 ..............................
........................................................................

 iter      E             dE          RMSdq      gap      omega  full diag
   1   -495.5834926 -0.495583E+03  0.434E-03    0.00       0.0  T
   2   -495.5831762  0.316363E-03  0.154E-02    0.01       1.0  T
   3   -495.5833465 -0.170353E-03  0.103E-02    0.00       1.0  T
   4   -495.5834255 -0.789386E-04  0.825E-03    0.01       1.0  T
   5   -495.5834314 -0.586947E-05  0.722E-03    0.00       1.0  T
   6   -495.5834921 -0.606971E-04  0.205E-03    0.00       2.7  T
   7   -495.5834954 -0.332804E-05  0.999E-04    0.00       5.6  T
   8   -495.5834962 -0.807790E-06  0.496E-04    0.00      11.2  T
   9   -495.5834962 -0.456066E-07  0.422E-04    0.00      13.2  T
     SCC iter.                  ...        0 min,  0.570 sec
     gradient                   ...        0 min,  0.170 sec
 * total energy  :  -486.9000537 Eh     change       -0.2427699E-05 Eh
   gradient norm :     0.0007202 Eh/α   predicted    -0.1083732E-05 ( -55.36%)
   displ. norm   :     0.0803039 α      lambda       -0.3434252E-05
   maximum displ.:     0.0263284 α      in ANC's #10, #7, #49, ...

........................................................................
.............................. CYCLE   25 ..............................
........................................................................

 iter      E             dE          RMSdq      gap      omega  full diag
   1   -495.5833945 -0.495583E+03  0.710E-03    0.00       0.0  T
   2   -495.5829795  0.414973E-03  0.204E-02    0.00       1.0  T
   3   -495.5832588 -0.279338E-03  0.110E-02    0.01       1.0  T
   4   -495.5819139  0.134497E-02  0.317E-02    0.02       1.0  T
   5   -495.5833266 -0.141270E-02  0.836E-03    0.00       1.0  T
   6   -495.5833743 -0.477006E-04  0.476E-03    0.00       1.2  T
   7   -495.5833888 -0.144839E-04  0.318E-03    0.00       1.7  T
   8   -495.5833996 -0.108899E-04  0.122E-03    0.00       4.6  T
   9   -495.5834010 -0.135453E-05  0.541E-04    0.00      10.3  T
  10   -495.5834013 -0.281145E-06  0.168E-04    0.00      33.2  T
  11   -495.5834013  0.811337E-08  0.166E-04    0.00      33.4  T
     SCC iter.                  ...        0 min,  0.695 sec
     gradient                   ...        0 min,  0.170 sec
 * total energy  :  -486.9000574 Eh     change       -0.3667995E-05 Eh
   gradient norm :     0.0005643 Eh/α   predicted    -0.1722433E-05 ( -53.04%)
   displ. norm   :     0.0664256 α      lambda       -0.2453070E-05
   maximum displ.:     0.0236766 α      in ANC's #10, #7, #9, ...

........................................................................
.............................. CYCLE   26 ..............................
........................................................................

 iter      E             dE          RMSdq      gap      omega  full diag
   1   -495.5832483 -0.495583E+03  0.560E-03    0.00       0.0  T
   2   -495.5828146  0.433696E-03  0.198E-02    0.01       1.0  T
   3   -495.5831622 -0.347568E-03  0.864E-03    0.00       1.0  T
   4   -495.5829661  0.196104E-03  0.149E-02    0.01       1.0  T
   5   -495.5828531  0.113053E-03  0.171E-02    0.00       1.0  T
   6   -495.5832380 -0.384913E-03  0.398E-03    0.00       1.4  T
   7   -495.5832508 -0.128213E-04  0.194E-03    0.00       2.9  T
   8   -495.5832536 -0.277814E-05  0.974E-04    0.00       5.7  T
   9   -495.5832542 -0.672657E-06  0.500E-04    0.00      11.1  T
  10   -495.5832545 -0.225459E-06  0.173E-04    0.00      32.1  T
     SCC iter.                  ...        0 min,  0.634 sec
     gradient                   ...        0 min,  0.170 sec
 * total energy  :  -486.9000601 Eh     change       -0.2684004E-05 Eh
   gradient norm :     0.0003587 Eh/α   predicted    -0.1229710E-05 ( -54.18%)
   displ. norm   :     0.0729390 α      lambda       -0.2497613E-05
   maximum displ.:     0.0273312 α      in ANC's #10, #7, #9, ...

........................................................................
.............................. CYCLE   27 ..............................
........................................................................

 iter      E             dE          RMSdq      gap      omega  full diag
   1   -495.5831738 -0.495583E+03  0.556E-03    0.00       0.0  T
   2   -495.5828462  0.327680E-03  0.178E-02    0.00       1.0  T
   3   -495.5831001 -0.253978E-03  0.801E-03    0.01       1.0  T
   4   -495.5826853  0.414863E-03  0.188E-02    0.01       1.0  T
   5   -495.5829453 -0.260066E-03  0.141E-02    0.01       1.0  T
   6   -495.5831472 -0.201837E-03  0.479E-03    0.00       1.2  T
   7   -495.5831773 -0.301630E-04  0.988E-04    0.00       5.6  T
   8   -495.5831780 -0.659202E-06  0.461E-04    0.00      12.0  T
   9   -495.5831779  0.134410E-06  0.604E-04    0.00       9.2  T
     SCC iter.                  ...        0 min,  0.569 sec
     gradient                   ...        0 min,  0.170 sec
 * total energy  :  -486.9000627 Eh     change       -0.2618637E-05 Eh
   gradient norm :     0.0004692 Eh/α   predicted    -0.1260452E-05 ( -51.87%)
   displ. norm   :     0.1021236 α      lambda       -0.3262457E-05
   maximum displ.:     0.0390370 α      in ANC's #10, #7, #9, ...

........................................................................
.............................. CYCLE   28 ..............................
........................................................................

 iter      E             dE          RMSdq      gap      omega  full diag
   1   -495.5831425 -0.495583E+03  0.742E-03    0.00       0.0  T
   2   -495.5825455  0.596979E-03  0.238E-02    0.00       1.0  T
   3   -495.5829033 -0.357773E-03  0.137E-02    0.01       1.0  T
   4   -495.5824566  0.446705E-03  0.222E-02    0.01       1.0  T
   5   -495.5827235 -0.266882E-03  0.195E-02    0.01       1.0  T
   6   -495.5831014 -0.377917E-03  0.625E-03    0.00       1.0  T
   7   -495.5831485 -0.470794E-04  0.127E-03    0.00       4.4  T
   8   -495.5831471  0.132881E-05  0.176E-03    0.00       3.2  T
   9   -495.5831499 -0.281017E-05  0.344E-04    0.00      16.1  T
  10   -495.5831500 -0.735640E-07  0.233E-04    0.00      23.8  T
  11   -495.5831500  0.148141E-07  0.222E-04    0.00      25.0  T
     SCC iter.                  ...        0 min,  0.708 sec
     gradient                   ...        0 min,  0.171 sec
 * total energy  :  -486.9000665 Eh     change       -0.3873587E-05 Eh
   gradient norm :     0.0006131 Eh/α   predicted    -0.1639214E-05 ( -57.68%)
   displ. norm   :     0.1012619 α      lambda       -0.2934877E-05
   maximum displ.:     0.0395985 α      in ANC's #10, #7, #9, ...

........................................................................
.............................. CYCLE   29 ..............................
........................................................................

 iter      E             dE          RMSdq      gap      omega  full diag
   1   -495.5832247 -0.495583E+03  0.680E-03    0.00       0.0  T
   2   -495.5820239  0.120081E-02  0.298E-02    0.01       1.0  T
   3   -495.5831274 -0.110348E-02  0.946E-03    0.01       1.0  T
   4   -495.5827815  0.345888E-03  0.197E-02    0.00       1.0  T
   5   -495.5830279 -0.246392E-03  0.133E-02    0.01       1.0  T
   6   -495.5832287 -0.200839E-03  0.203E-03    0.00       2.7  T
   7   -495.5832324 -0.367821E-05  0.115E-03    0.00       4.8  T
   8   -495.5832333 -0.875697E-06  0.502E-04    0.00      11.1  T
   9   -495.5832332  0.257029E-07  0.515E-04    0.00      10.8  T
     SCC iter.                  ...        0 min,  0.579 sec
     gradient                   ...        0 min,  0.172 sec
 * total energy  :  -486.9000696 Eh     change       -0.3072364E-05 Eh
   gradient norm :     0.0006042 Eh/α   predicted    -0.1478201E-05 ( -51.89%)
   displ. norm   :     0.0946141 α      lambda       -0.2451677E-05
   maximum displ.:     0.0381541 α      in ANC's #10, #7, #9, ...

........................................................................
.............................. CYCLE   30 ..............................
........................................................................

 iter      E             dE          RMSdq      gap      omega  full diag
   1   -495.5834504 -0.495583E+03  0.568E-03    0.00       0.0  T
   2   -495.5830650  0.385476E-03  0.177E-02    0.01       1.0  T
   3   -495.5832771 -0.212091E-03  0.113E-02    0.01       1.0  T
   4   -495.5830666  0.210407E-03  0.173E-02    0.00       1.0  T
   5   -495.5834181 -0.351443E-03  0.598E-03    0.00       1.0  T
   6   -495.5834447 -0.266220E-04  0.277E-03    0.00       2.0  T
   7   -495.5834500 -0.525454E-05  0.182E-03    0.00       3.1  T
   8   -495.5834535 -0.349180E-05  0.583E-04    0.00       9.5  T
   9   -495.5834537 -0.266715E-06  0.347E-04    0.00      16.0  T
  10   -495.5834538 -0.724907E-07  0.175E-04    0.00      31.8  T
     SCC iter.                  ...        0 min,  0.639 sec
     gradient                   ...        0 min,  0.172 sec
 * total energy  :  -486.9000727 Eh     change       -0.3088057E-05 Eh
   gradient norm :     0.0005031 Eh/α   predicted    -0.1231641E-05 ( -60.12%)
   displ. norm   :     0.0873839 α      lambda       -0.2415688E-05
   maximum displ.:     0.0361509 α      in ANC's #10, #7, #9, ...

........................................................................
.............................. CYCLE   31 ..............................
........................................................................

 iter      E             dE          RMSdq      gap      omega  full diag
   1   -495.5837345 -0.495584E+03  0.552E-03    0.01       0.0  T
   2   -495.5822452  0.148929E-02  0.319E-02    0.01       1.0  T
   3   -495.5836102 -0.136493E-02  0.100E-02    0.01       1.0  T
   4   -495.5836270 -0.168023E-04  0.108E-02    0.00       1.0  T
   5   -495.5835653  0.616532E-04  0.123E-02    0.00       1.0  T
   6   -495.5837156 -0.150330E-03  0.540E-03    0.00       1.0  T
   7   -495.5837448 -0.291965E-04  0.122E-03    0.00       4.6  T
   8   -495.5837458 -0.971226E-06  0.676E-04    0.00       8.2  T
   9   -495.5837455  0.284038E-06  0.903E-04    0.00       6.2  T
     SCC iter.                  ...        0 min,  0.585 sec
     gradient                   ...        0 min,  0.171 sec
 * total energy  :  -486.9000747 Eh     change       -0.1988510E-05 Eh
   gradient norm :     0.0004669 Eh/α   predicted    -0.1213635E-05 ( -38.97%)
   displ. norm   :     0.0917588 α      lambda       -0.2668245E-05
   maximum displ.:     0.0381805 α      in ANC's #10, #7, #9, ...

........................................................................
.............................. CYCLE   32 ..............................
........................................................................

 iter      E             dE          RMSdq      gap      omega  full diag
   1   -495.5838984 -0.495584E+03  0.585E-03    0.01       0.0  T
   2   -495.5822273  0.167103E-02  0.340E-02    0.02       1.0  T
   3   -495.5836750 -0.144772E-02  0.132E-02    0.01       1.0  T
   4   -495.5838340 -0.159002E-03  0.918E-03    0.00       1.0  T
   5   -495.5838395 -0.543533E-05  0.875E-03    0.00       1.0  T
   6   -495.5838663 -0.268298E-04  0.619E-03    0.00       1.0  T
   7   -495.5839095 -0.431850E-04  0.164E-03    0.00       3.4  T
   8   -495.5839098 -0.288314E-06  0.170E-03    0.00       3.3  T
   9   -495.5839125 -0.268406E-05  0.444E-04    0.00      12.5  T
  10   -495.5839126 -0.159225E-06  0.273E-04    0.00      20.3  T
  11   -495.5839127 -0.563716E-07  0.175E-04    0.00      31.7  T
     SCC iter.                  ...        0 min,  0.697 sec
     gradient                   ...        0 min,  0.171 sec
 * total energy  :  -486.9000784 Eh     change       -0.3665799E-05 Eh
   gradient norm :     0.0005789 Eh/α   predicted    -0.1344213E-05 ( -63.33%)
   displ. norm   :     0.1076091 α      lambda       -0.2987309E-05
   maximum displ.:     0.0449245 α      in ANC's #10, #7, #9, ...

........................................................................
.............................. CYCLE   33 ..............................
........................................................................

 iter      E             dE          RMSdq      gap      omega  full diag
   1   -495.5839632 -0.495584E+03  0.613E-03    0.00       0.0  T
   2   -495.5829896  0.973571E-03  0.270E-02    0.01       1.0  T
   3   -495.5837099 -0.720248E-03  0.135E-02    0.01       1.0  T
   4   -495.5837641 -0.542748E-04  0.138E-02    0.00       1.0  T
   5   -495.5838851 -0.121003E-03  0.869E-03    0.00       1.0  T
   6   -495.5839287 -0.435262E-04  0.611E-03    0.00       1.0  T
   7   -495.5839686 -0.399494E-04  0.198E-03    0.00       2.8  T
   8   -495.5839717 -0.310059E-05  0.101E-03    0.00       5.5  T
   9   -495.5839722 -0.467685E-06  0.713E-04    0.00       7.8  T
  10   -495.5839726 -0.468483E-06  0.262E-04    0.00      21.2  T
     SCC iter.                  ...        0 min,  0.633 sec
     gradient                   ...        0 min,  0.170 sec
 * total energy  :  -486.9000819 Eh     change       -0.3489287E-05 Eh
   gradient norm :     0.0006511 Eh/α   predicted    -0.1502333E-05 ( -56.94%)
   displ. norm   :     0.1438832 α      lambda       -0.3753590E-05
   maximum displ.:     0.0602039 α      in ANC's #10, #7, #2, ...

........................................................................
.............................. CYCLE   34 ..............................
........................................................................

 iter      E             dE          RMSdq      gap      omega  full diag
   1   -495.5838748 -0.495584E+03  0.721E-03    0.00       0.0  T
   2   -495.5836362  0.238605E-03  0.144E-02    0.00       1.0  T
   3   -495.5834763  0.159849E-03  0.172E-02    0.01       1.0  T
   4   -495.5826847  0.791608E-03  0.308E-02    0.01       1.0  T
   5   -495.5837222 -0.103745E-02  0.118E-02    0.01       1.0  T
   6   -495.5838677 -0.145503E-03  0.291E-03    0.00       1.9  T
   7   -495.5838659  0.179519E-05  0.331E-03    0.00       1.7  T
   8   -495.5838772 -0.113152E-04  0.898E-04    0.00       6.2  T
   9   -495.5838779 -0.681182E-06  0.451E-04    0.00      12.3  T
  10   -495.5838780 -0.112657E-06  0.291E-04    0.00      19.1  T
     SCC iter.                  ...        0 min,  0.634 sec
     gradient                   ...        0 min,  0.171 sec
 * total energy  :  -486.9000861 Eh     change       -0.4227517E-05 Eh
   gradient norm :     0.0007427 Eh/α   predicted    -0.1896103E-05 ( -55.15%)
   displ. norm   :     0.1538178 α      lambda       -0.3345960E-05
   maximum displ.:     0.0649144 α      in ANC's #10, #7, #2, ...

........................................................................
.............................. CYCLE   35 ..............................
........................................................................

 iter      E             dE          RMSdq      gap      omega  full diag
   1   -495.5837015 -0.495584E+03  0.731E-03    0.00       0.0  T
   2   -495.5834164  0.285074E-03  0.162E-02    0.01       1.0  T
   3   -495.5833193  0.971271E-04  0.170E-02    0.01       1.0  T
   4   -495.5827871  0.532232E-03  0.261E-02    0.02       1.0  T
   5   -495.5835436 -0.756508E-03  0.127E-02    0.00       1.0  T
   6   -495.5836782 -0.134633E-03  0.482E-03    0.00       1.2  T
   7   -495.5837012 -0.230221E-04  0.189E-03    0.00       2.9  T
   8   -495.5837026 -0.133871E-05  0.169E-03    0.00       3.3  T
   9   -495.5837055 -0.292300E-05  0.313E-04    0.00      17.7  T
  10   -495.5837056 -0.958834E-07  0.144E-04    0.00      38.6  T
  11   -495.5837056 -0.941083E-08  0.954E-05    0.00      58.2  T
     SCC iter.                  ...        0 min,  0.697 sec
     gradient                   ...        0 min,  0.171 sec
 * total energy  :  -486.9000898 Eh     change       -0.3670559E-05 Eh
   gradient norm :     0.0006169 Eh/α   predicted    -0.1694458E-05 ( -53.84%)
   displ. norm   :     0.1298113 α      lambda       -0.2482400E-05
   maximum displ.:     0.0555094 α      in ANC's #10, #7, #2, ...

........................................................................
.............................. CYCLE   36 ..............................
........................................................................

 iter      E             dE          RMSdq      gap      omega  full diag
   1   -495.5835917 -0.495584E+03  0.588E-03    0.00       0.0  T
   2   -495.5829678  0.623871E-03  0.231E-02    0.01       1.0  T
   3   -495.5834065 -0.438661E-03  0.116E-02    0.00       1.0  T
   4   -495.5833494  0.570807E-04  0.139E-02    0.01       1.0  T
   5   -495.5835386 -0.189183E-03  0.820E-03    0.00       1.0  T
   6   -495.5835946 -0.560402E-04  0.184E-03    0.00       3.0  T
   7   -495.5835944  0.209195E-06  0.192E-03    0.00       2.9  T
   8   -495.5835979 -0.352216E-05  0.904E-04    0.00       6.1  T
   9   -495.5835985 -0.545987E-06  0.488E-04    0.00      11.4  T
  10   -495.5835987 -0.206667E-06  0.245E-04    0.00      22.7  T
     SCC iter.                  ...        0 min,  0.634 sec
     gradient                   ...        0 min,  0.171 sec
 * total energy  :  -486.9000925 Eh     change       -0.2765565E-05 Eh
   gradient norm :     0.0003611 Eh/α   predicted    -0.1252417E-05 ( -54.71%)
   displ. norm   :     0.1389013 α      lambda       -0.2528552E-05
   maximum displ.:     0.0592488 α      in ANC's #10, #7, #2, ...

........................................................................
.............................. CYCLE   37 ..............................
........................................................................

 iter      E             dE          RMSdq      gap      omega  full diag
   1   -495.5835108 -0.495584E+03  0.631E-03    0.00       0.0  T
   2   -495.5825965  0.914319E-03  0.275E-02    0.02       1.0  T
   3   -495.5833123 -0.715859E-03  0.123E-02    0.00       1.0  T
   4   -495.5832737  0.386156E-04  0.140E-02    0.01       1.0  T
   5   -495.5834232 -0.149452E-03  0.105E-02    0.00       1.0  T
   6   -495.5835129 -0.897204E-04  0.236E-03    0.00       2.4  T
   7   -495.5835122  0.638446E-06  0.259E-03    0.00       2.1  T
   8   -495.5835197 -0.746748E-05  0.608E-04    0.00       9.1  T
   9   -495.5835195  0.244357E-06  0.819E-04    0.00       6.8  T
  10   -495.5835200 -0.571540E-06  0.324E-04    0.00      17.2  T
     SCC iter.                  ...        0 min,  0.633 sec
     gradient                   ...        0 min,  0.171 sec
 * total energy  :  -486.9000954 Eh     change       -0.2890442E-05 Eh
   gradient norm :     0.0003807 Eh/α   predicted    -0.1279133E-05 ( -55.75%)
   displ. norm   :     0.1625466 α      lambda       -0.2804684E-05
   maximum displ.:     0.0686025 α      in ANC's #10, #7, #2, ...

........................................................................
.............................. CYCLE   38 ..............................
........................................................................

 iter      E             dE          RMSdq      gap      omega  full diag
   1   -495.5834605 -0.495583E+03  0.747E-03    0.00       0.0  T
   2   -495.5826843  0.776255E-03  0.259E-02    0.01       1.0  T
   3   -495.5832140 -0.529717E-03  0.135E-02    0.00       1.0  T
   4   -495.5828758  0.338169E-03  0.214E-02    0.01       1.0  T
   5   -495.5833809 -0.505064E-03  0.961E-03    0.00       1.0  T
   6   -495.5834591 -0.782213E-04  0.294E-03    0.00       1.9  T
   7   -495.5834596 -0.441025E-06  0.286E-03    0.00       1.9  T
   8   -495.5834675 -0.798572E-05  0.147E-03    0.00       3.8  T
   9   -495.5834695 -0.195839E-05  0.430E-04    0.00      12.9  T
  10   -495.5834696 -0.787317E-07  0.300E-04    0.00      18.5  T
  11   -495.5834696 -0.566584E-07  0.205E-04    0.00      27.1  T
     SCC iter.                  ...        0 min,  0.695 sec
     gradient                   ...        0 min,  0.171 sec
 * total energy  :  -486.9000988 Eh     change       -0.3419447E-05 Eh
   gradient norm :     0.0006277 Eh/α   predicted    -0.1421148E-05 ( -58.44%)
   displ. norm   :     0.1877378 α      lambda       -0.3067492E-05
   maximum displ.:     0.0782452 α      in ANC's #10, #7, #2, ...

........................................................................
.............................. CYCLE   39 ..............................
........................................................................

 iter      E             dE          RMSdq      gap      omega  full diag
   1   -495.5834586 -0.495583E+03  0.879E-03    0.00       0.0  T
   2   -495.5826018  0.856748E-03  0.259E-02    0.02       1.0  T
   3   -495.5831429 -0.541014E-03  0.152E-02    0.01       1.0  T
   4   -495.5824055  0.737328E-03  0.299E-02    0.01       1.0  T
   5   -495.5833453 -0.939819E-03  0.106E-02    0.00       1.0  T
   6   -495.5834537 -0.108353E-03  0.330E-03    0.00       1.7  T
   7   -495.5834570 -0.326528E-05  0.276E-03    0.00       2.0  T
   8   -495.5834641 -0.716022E-05  0.132E-03    0.00       4.2  T
   9   -495.5834656 -0.149597E-05  0.418E-04    0.00      13.3  T
  10   -495.5834658 -0.156490E-06  0.180E-04    0.00      30.8  T
  11   -495.5834658 -0.869221E-08  0.128E-04    0.00      43.3  T
     SCC iter.                  ...        0 min,  0.696 sec
     gradient                   ...        0 min,  0.171 sec
 * total energy  :  -486.9001023 Eh     change       -0.3508823E-05 Eh
   gradient norm :     0.0007766 Eh/α   predicted    -0.1560100E-05 ( -55.54%)
   displ. norm   :     0.1741258 α      lambda       -0.2855920E-05
   maximum displ.:     0.0710046 α      in ANC's #10, #7, #2, ...

........................................................................
.............................. CYCLE   40 ..............................
........................................................................

 iter      E             dE          RMSdq      gap      omega  full diag
   1   -495.5835423 -0.495584E+03  0.882E-03    0.00       0.0  T
   2   -495.5834745  0.677632E-04  0.983E-03    0.00       1.0  T
   3   -495.5832154  0.259087E-03  0.182E-02    0.00       1.0  T
   4   -495.5831365  0.789776E-04  0.196E-02    0.01       1.0  T
   5   -495.5833075 -0.171020E-03  0.138E-02    0.00       1.0  T
   6   -495.5835374 -0.229953E-03  0.230E-03    0.00       2.4  T
   7   -495.5835346  0.285867E-05  0.281E-03    0.00       2.0  T
   8   -495.5835414 -0.680616E-05  0.160E-03    0.00       3.5  T
   9   -495.5835441 -0.270480E-05  0.603E-04    0.00       9.2  T
  10   -495.5835444 -0.306119E-06  0.249E-04    0.00      22.3  T
  11   -495.5835444 -0.366084E-07  0.109E-04    0.00      51.1  T
     SCC iter.                  ...        0 min,  0.698 sec
     gradient                   ...        0 min,  0.171 sec
 * total energy  :  -486.9001055 Eh     change       -0.3192026E-05 Eh
   gradient norm :     0.0006429 Eh/α   predicted    -0.1451200E-05 ( -54.54%)
   displ. norm   :     0.1279876 α      lambda       -0.2157751E-05
   maximum displ.:     0.0505148 α      in ANC's #2, #10, #7, ...

........................................................................
.............................. CYCLE   41 ..............................
........................................................................

 iter      E             dE          RMSdq      gap      omega  full diag
   1   -495.5836298 -0.495584E+03  0.774E-03    0.00       0.0  T
   2   -495.5833571  0.272732E-03  0.170E-02    0.00       1.0  T
   3   -495.5834165 -0.593698E-04  0.136E-02    0.01       1.0  T
   4   -495.5824046  0.101187E-02  0.299E-02    0.01       1.0  T
   5   -495.5833079 -0.903315E-03  0.167E-02    0.01       1.0  T
   6   -495.5836296 -0.321663E-03  0.228E-03    0.00       2.4  T
   7   -495.5836280  0.158396E-05  0.253E-03    0.00       2.2  T
   8   -495.5836326 -0.456542E-05  0.142E-03    0.00       3.9  T
   9   -495.5836346 -0.204285E-05  0.578E-04    0.00       9.6  T
  10   -495.5836350 -0.352039E-06  0.258E-04    0.00      21.6  T
  11   -495.5836350 -0.547152E-07  0.159E-04    0.00      35.0  T
     SCC iter.                  ...        0 min,  0.696 sec
     gradient                   ...        0 min,  0.171 sec
 * total energy  :  -486.9001079 Eh     change       -0.2399623E-05 Eh
   gradient norm :     0.0003117 Eh/α   predicted    -0.1088471E-05 ( -54.64%)
   displ. norm   :     0.0772224 α      lambda       -0.1376948E-05
   maximum displ.:     0.0318174 α      in ANC's #2, #5, #10, ...

........................................................................
.............................. CYCLE   42 ..............................
........................................................................

 iter      E             dE          RMSdq      gap      omega  full diag
   1   -495.5836869 -0.495584E+03  0.588E-03    0.00       0.0  T
   2   -495.5833712  0.315688E-03  0.173E-02    0.00       1.0  T
   3   -495.5835656 -0.194368E-03  0.996E-03    0.01       1.0  T
   4   -495.5831843  0.381298E-03  0.192E-02    0.01       1.0  T
   5   -495.5835724 -0.388132E-03  0.105E-02    0.01       1.0  T
   6   -495.5836833 -0.110954E-03  0.274E-03    0.00       2.0  T
   7   -495.5836864 -0.310195E-05  0.208E-03    0.00       2.7  T
   8   -495.5836894 -0.300898E-05  0.137E-03    0.00       4.1  T
   9   -495.5836915 -0.202467E-05  0.343E-04    0.00      16.2  T
  10   -495.5836916 -0.781383E-07  0.259E-04    0.00      21.5  T
  11   -495.5836916 -0.507169E-07  0.157E-04    0.00      35.4  T
     SCC iter.                  ...        0 min,  0.697 sec
     gradient                   ...        0 min,  0.171 sec
 * total energy  :  -486.9001095 Eh     change       -0.1556870E-05 Eh
   gradient norm :     0.0002109 Eh/α   predicted    -0.6908131E-06 ( -55.63%)
   displ. norm   :     0.0555506 α      lambda       -0.1171319E-05
   maximum displ.:     0.0227711 α      in ANC's #2, #5, #33, ...
 * RMSD in coord.:     0.1127572 α      energy gain  -0.7082478E-04 Eh

generating ANC from exact Hessian ...
Using Lindh-Hessian (1995)
 Shifting diagonal of input Hessian by   1.002693871910294E-002
 Lowest  eigenvalues of input Hessian
    0.010000    0.010021    0.000000    0.000000    0.000000    0.000000
    0.000000    0.000000    0.010039    0.010048    0.010054    0.010071
    0.010082    0.010088    0.010101    0.010129    0.010146    0.010154
 Highest eigenvalues
    2.077796    2.080020    2.088475    2.089465    2.091757    2.093615
 

........................................................................
.............................. CYCLE   43 ..............................
........................................................................

 iter      E             dE          RMSdq      gap      omega  full diag
   1   -495.5836687 -0.495584E+03  0.498E-03    0.00       0.0  T
   2   -495.5835098  0.158862E-03  0.121E-02    0.00       1.0  T
   3   -495.5835602 -0.504097E-04  0.925E-03    0.01       1.0  T
   4   -495.5832227  0.337560E-03  0.182E-02    0.01       1.0  T
   5   -495.5835587 -0.336048E-03  0.988E-03    0.01       1.0  T
   6   -495.5836439 -0.851630E-04  0.478E-03    0.00       1.2  T
   7   -495.5836699 -0.259672E-04  0.952E-04    0.00       5.8  T
   8   -495.5836699 -0.760208E-07  0.950E-04    0.00       5.9  T
   9   -495.5836708 -0.831593E-06  0.310E-04    0.00      17.9  T
     SCC iter.                  ...        0 min,  0.570 sec
     gradient                   ...        0 min,  0.171 sec
 * total energy  :  -486.9001108 Eh     change       -0.1269317E-05 Eh
   gradient norm :     0.0003808 Eh/α   predicted     0.0000000E+00 (-100.00%)
   displ. norm   :     0.0075936 α      lambda       -0.4366043E-06
   maximum displ.:     0.0022085 α      in ANC's #29, #5, #42, ...

........................................................................
.............................. CYCLE   44 ..............................
........................................................................

 iter      E             dE          RMSdq      gap      omega  full diag
   1   -495.5836383 -0.495584E+03  0.132E-03    0.00       0.0  T
   2   -495.5835651  0.732434E-04  0.836E-03    0.01       1.0  T
   3   -495.5836314 -0.662920E-04  0.248E-03    0.00       2.2  T
   4   -495.5836379 -0.652802E-05  0.109E-03    0.00       5.1  T
   5   -495.5836271  0.108400E-04  0.301E-03    0.00       1.8  T
   6   -495.5836356 -0.855100E-05  0.190E-03    0.00       2.9  T
   7   -495.5836392 -0.362340E-05  0.424E-04    0.00      13.1  T
   8   -495.5836392  0.750293E-08  0.409E-04    0.00      13.6  T
   9   -495.5836394 -0.148245E-06  0.145E-04    0.00      38.3  T
     SCC iter.                  ...        0 min,  0.570 sec
     gradient                   ...        0 min,  0.170 sec
 * total energy  :  -486.9001114 Eh     change       -0.6745610E-06 Eh
   gradient norm :     0.0002730 Eh/α   predicted    -0.2299229E-06 ( -65.92%)
   displ. norm   :     0.0444914 α      lambda       -0.1356000E-05
   maximum displ.:     0.0135465 α      in ANC's #29, #5, #42, ...

[...]
    59   6 C       60   6 C                                       1.3934718
    59   6 C       61   1 H                                       1.0814709
    57   6 C       62   1 H                                       1.0815072
    58   6 C       63   1 H                                       1.0805245
    64   6 C       65   6 C                                       1.3943282
    65   6 C       66   6 C                                       1.3802980
    66   6 C       67   6 C                                       1.3896425
    67   6 C       68   6 C                                       1.3901459
    65   6 C       69   1 H                                       1.0805344
    66   6 C       70   1 H                                       1.0816977
    64   6 C       71   6 C                                       1.3941413
    68   6 C       71   6 C                                       1.3791661
    68   6 C       72   1 H                                       1.0804419
    71   6 C       73   1 H                                       1.0797806
    74   6 C       76   1 H                                       1.0925578
    74   6 C       77   1 H                                       1.0955222
    75   6 C       78   6 C                                       1.3892556
    78   6 C       79   6 C                                       1.3796300
    75   6 C       80   6 C                                       1.3904936
    80   6 C       81   6 C                                       1.3819901
    79   6 C       82   6 C                                       1.3936784
    81   6 C       82   6 C                                       1.3933556
    78   6 C       83   1 H                                       1.0800395
    79   6 C       84   1 H                                       1.0789866
    80   6 C       85   1 H                                       1.0818900
    81   6 C       86   1 H                                       1.0815442
    87   6 C       88   6 C                                       1.3943213
    88   6 C       89   6 C                                       1.3823289
    87   6 C       90   6 C                                       1.3990173
    90   6 C       91   6 C                                       1.3888005
    89   6 C       92   6 C                                       1.3921946
    91   6 C       92   6 C                                       1.3836725
    88   6 C       93   1 H                                       1.0822443
    91   6 C       94   1 H                                       1.0817624
    95   6 C       97   1 H                                       1.0917497
    95   6 C       98   1 H                                       1.0888857
    96   6 C       99   6 C                                       1.3863568
    99   6 C      100   6 C                                       1.3808453
   100   6 C      101   6 C                                       1.3932040
   101   6 C      102   6 C                                       1.4023170
    96   6 C      103   6 C                                       1.3898428
   102   6 C      103   6 C                                       1.3836209
    99   6 C      104   1 H                                       1.0811927
   100   6 C      105   1 H                                       1.0812221
   103   6 C      106   1 H                                       1.0814119
   107   6 C      108   6 C                                       1.3936120
   108   6 C      109   6 C                                       1.3794255
   109   6 C      110   6 C                                       1.3924125
   110   6 C      111   6 C                                       1.3934763
   107   6 C      112   6 C                                       1.3962429
   111   6 C      112   6 C                                       1.3767148
   108   6 C      113   1 H                                       1.0803386
   112   6 C      114   1 H                                       1.0805700
   111   6 C      115   1 H                                       1.0806781
   109   6 C      116   1 H                                       1.0812006
   110   6 C      117   6 C                                       1.4874690
   117   6 C      118  17 Cl                                      1.8138927
   117   6 C      119   1 H                                       1.0895153
   117   6 C      120   1 H                                       1.0887317
   121   6 C      123   1 H                                       1.0929831
   121   6 C      124   1 H                                       1.0943859
   122   6 C      125   6 C                                       1.3901637
   125   6 C      126   6 C                                       1.3793101
   126   6 C      127   6 C                                       1.3928563
   122   6 C      128   6 C                                       1.3878200
   127   6 C      129   6 C                                       1.3910340
   128   6 C      129   6 C                                       1.3804346
   125   6 C      130   1 H                                       1.0814284
   126   6 C      131   1 H                                       1.0807308
   128   6 C      132   1 H                                       1.0813448
   129   6 C      133   1 H                                       1.0800535
   134   6 C      135   6 C                                       1.3917355
   135   6 C      136   6 C                                       1.3824477
   134   6 C      137   6 C                                       1.3909147
   137   6 C      138   6 C                                       1.3818710
   136   6 C      139   6 C                                       1.3925088
   138   6 C      139   6 C                                       1.3866587
   135   6 C      140   1 H                                       1.0810319
   137   6 C      141   1 H                                       1.0804668
   138   6 C      142   1 H                                       1.0815541
   144   6 C      145   6 C                                       1.3929191
   146   6 C      147   1 H                                       1.0987549
   146   6 C      148   1 H                                       1.0920252
   143   6 C      149   1 H                                       1.0920146
   143   6 C      150   1 H                                       1.0989685
   144   6 C      151   6 C                                       1.3846993
   145   6 C      152   6 C                                       1.3815215
   152   6 C      153   6 C                                       1.3943097
   151   6 C      154   6 C                                       1.3875415
   153   6 C      154   6 C                                       1.3991425
   151   6 C      155   1 H                                       1.0819330
   152   6 C      156   1 H                                       1.0819097
   157   6 C      158   6 C                                       1.3966801
   158   6 C      159   6 C                                       1.3778425
   157   6 C      160   6 C                                       1.3969033
   160   6 C      161   6 C                                       1.3782606
   159   6 C      162   6 C                                       1.3956522
   161   6 C      162   6 C                                       1.3947799
   158   6 C      163   1 H                                       1.0810311
   159   6 C      164   1 H                                       1.0809853
   160   6 C      165   1 H                                       1.0811050
   161   6 C      166   1 H                                       1.0811144
   162   6 C      167   6 C                                       1.4845778
   167   6 C      169   1 H                                       1.0888776
   167   6 C      170   1 H                                       1.0888725
   173   6 C      175   1 H                                       1.0980699
   173   6 C      176   1 H                                       1.0921985
   174   6 C      177   6 C                                       1.3910215
   172   6 C      178   1 H                                       1.0925858
   172   6 C      179   1 H                                       1.0961613
   177   6 C      180   6 C                                       1.3855952
   174   6 C      181   6 C                                       1.3859024
   181   6 C      182   6 C                                       1.3892195
   180   6 C      183   6 C                                       1.3870200
   182   6 C      183   6 C                                       1.3966521
   180   6 C      184   1 H                                       1.0821734
   181   6 C      185   1 H                                       1.0820296
   186   6 C      187   6 C                                       1.3896360
   186   6 C      188   6 C                                       1.3904580
   188   6 C      189   6 C                                       1.3825471
   189   6 C      190   6 C                                       1.3893658
   187   6 C      191   6 C                                       1.3831425
   190   6 C      191   6 C                                       1.3907844
   191   6 C      192   1 H                                       1.0815608
   187   6 C      193   1 H                                       1.0807023
   188   6 C      194   1 H                                       1.0814049
   189   6 C      195   1 H                                       1.0802771
   197   6 C      199   6 C                                       1.3851716
   198   6 C      199   6 C                                       1.3896532
   171   6 C      200   1 H                                       1.0925894
   171   6 C      201   1 H                                       1.0903211
   197   6 C      202   6 C                                       1.3914399
   202   6 C      203   6 C                                       1.3992194
   198   6 C      204   6 C                                       1.3771034
   203   6 C      204   6 C                                       1.3977025
   198   6 C      205   1 H                                       1.0793866
   204   6 C      206   1 H                                       1.0805497
   197   6 C      207   1 H                                       1.0825625
   196   6 C      208   1 H                                       1.0923100
   196   6 C      209   1 H                                       1.0957961
   210   6 C      211   6 C                                       1.3920116
   211   6 C      212   6 C                                       1.3854866
   212   6 C      213   6 C                                       1.3863572
   213   6 C      214   6 C                                       1.3927189
   210   6 C      215   6 C                                       1.3956507
   214   6 C      215   6 C                                       1.3802223
   211   6 C      216   1 H                                       1.0791809
   212   6 C      217   1 H                                       1.0811896
   215   6 C      218   1 H                                       1.0807553
   219   6 C      221   1 H                                       1.0948954
   219   6 C      222   1 H                                       1.0927874
   220   6 C      223   6 C                                       1.3963438
   223   6 C      224   6 C                                       1.3921128
   224   6 C      225   6 C                                       1.3818409
   220   6 C      226   6 C                                       1.3865690
   225   6 C      227   6 C                                       1.3878450
   226   6 C      227   6 C                                       1.3858235
   226   6 C      228   1 H                                       1.0808266
   224   6 C      229   1 H                                       1.0806150
   225   6 C      230   1 H                                       1.0801622
   231   6 C      232   1 H                                       1.0922252
   231   6 C      233   1 H                                       1.0899581
   234   6 C      235   6 C                                       1.3936859
   235   6 C      236   6 C                                       1.3801324
   236   6 C      237   6 C                                       1.3900203
   237   6 C      238   6 C                                       1.3878072
   234   6 C      239   6 C                                       1.3896053
   238   6 C      239   6 C                                       1.3830874
   235   6 C      240   1 H                                       1.0807004
   236   6 C      241   1 H                                       1.0808515
   238   6 C      242   1 H                                       1.0815210
   239   6 C      243   1 H                                       1.0812197
   244   6 C      246   1 H                                       1.0923568
   244   6 C      247   1 H                                       1.0897486
   245   6 C      248   6 C                                       1.3884799
   248   6 C      249   6 C                                       1.3812096
   249   6 C      250   6 C                                       1.3951350
   250   6 C      251   6 C                                       1.3801530
   245   6 C      252   6 C                                       1.3967348
   251   6 C      252   6 C                                       1.3954222
   251   6 C      254   1 H                                       1.0817955
   248   6 C      255   1 H                                       1.0813299
   253   6 C      256   6 C                                       1.3962223
   256   6 C      257   6 C                                       1.3785170
   257   6 C      258   6 C                                       1.3943240
   258   6 C      259   6 C                                       1.3940257
   253   6 C      260   6 C                                       1.3949667
   259   6 C      260   6 C                                       1.3789770
   256   6 C      261   1 H                                       1.0809241
   257   6 C      262   1 H                                       1.0809568
   259   6 C      263   1 H                                       1.0809004
   260   6 C      264   1 H                                       1.0809298
   258   6 C      265   6 C                                       1.4865913
   265   6 C      266  17 Cl                                      1.8152592 (max)
   265   6 C      267   1 H                                       1.0888955
   265   6 C      268   1 H                                       1.0890574
   269   6 C      271   1 H                                       1.0912268
   269   6 C      272   1 H                                       1.0982341
   270   6 C      273   6 C                                       1.3958094
   274   6 C      275   1 H                                       1.0909627
   274   6 C      276   1 H                                       1.0976759
   270   6 C      277   6 C                                       1.3867821
   277   6 C      278   6 C                                       1.3807513
   278   6 C      279   6 C                                       1.3985835
   273   6 C      280   6 C                                       1.3777437
   279   6 C      280   6 C                                       1.3999269
   280   6 C      281   1 H                                       1.0803682
   278   6 C      282   1 H                                       1.0799509
   277   6 C      283   1 H                                       1.0818730
   284   6 C      285   6 C                                       1.3993828
   285   6 C      286   6 C                                       1.3757322
   284   6 C      287   6 C                                       1.4001565
   287   6 C      288   6 C                                       1.3787813
   286   6 C      289   6 C                                       1.3961342
   288   6 C      289   6 C                                       1.4051616
   286   6 C      290   1 H                                       1.0818194
   285   6 C      291   1 H                                       1.0796898
   287   6 C      292   1 H                                       1.0786375 (min)
   289   6 C      293   6 C                                       1.4830727
   293   6 C      295   1 H                                       1.0887560
   293   6 C      296   1 H                                       1.0888625
   297   6 C      299   1 H                                       1.0955264
   297   6 C      300   1 H                                       1.0935484
   298   6 C      301   6 C                                       1.3908738
   301   6 C      302   6 C                                       1.3814397
   302   6 C      303   6 C                                       1.3934274
   303   6 C      304   6 C                                       1.3941703
   298   6 C      305   6 C                                       1.3893991
   304   6 C      305   6 C                                       1.3806270
   301   6 C      306   1 H                                       1.0816147
   307   6 C      308   6 C                                       1.3939053
   307   6 C      309   6 C                                       1.3936021
   308   6 C      310   6 C                                       1.3856507
   310   6 C      311   6 C                                       1.3936340
   309   6 C      312   6 C                                       1.3795070
   311   6 C      312   6 C                                       1.3857202
   308   6 C      313   1 H                                       1.0814018
   309   6 C      314   1 H                                       1.0800549
   312   6 C      315   1 H                                       1.0811653
   316   6 C      317   1 H                                       1.0913642
   316   6 C      318   1 H                                       1.0985393
   319   6 C      320   1 H                                       1.0986486
   319   6 C      321   1 H                                       1.0918611
   305   6 C      322   1 H                                       1.0810281
   304   6 C      323   1 H                                       1.0805248
   302   6 C      324   1 H                                       1.0809066

 * 3 distinct bonds (by element types)

   Z      Z             #   av. dist./Å        max./Å        min./Å
   1 H    6 C         136     1.0854397     1.0989685     1.0786375
   6 C    6 C         162     1.3926203     1.4885477     1.3757322
   6 C   17 Cl          3     1.8130361     1.8152592     1.8099563


optimized geometry written to: xtbopt.xyz


           -------------------------------------------------
          | TOTAL ENERGY             -486.900111442603 Eh   |
          | GRADIENT NORM               0.000262057125 Eh/α |
          | HOMO-LUMO GAP               0.003920983685 eV   |
           -------------------------------------------------

------------------------------------------------------------------------
 * finished run on 2025/09/03 at 13:02:32.320     
------------------------------------------------------------------------
 total:
 * wall-time:     0 d,  0 h,  0 min, 45.467 sec
 *  cpu-time:     0 d,  0 h,  7 min, 32.018 sec
 * ratio c/w:     9.942 speedup
 SCF:
 * wall-time:     0 d,  0 h,  0 min,  2.077 sec
 *  cpu-time:     0 d,  0 h,  0 min, 20.718 sec
 * ratio c/w:     9.974 speedup
 ANC optimizer:
 * wall-time:     0 d,  0 h,  0 min, 43.294 sec
 *  cpu-time:     0 d,  0 h,  7 min, 10.417 sec
 * ratio c/w:     9.942 speedup

