
                                 *****************
                                 * O   R   C   A *
                                 *****************

                                            #,                                       
                                            ###                                      
                                            ####                                     
                                            #####                                    
                                            ######                                   
                                           ########,                                 
                                     ,,################,,,,,                         
                               ,,#################################,,                 
                          ,,##########################################,,             
                       ,#########################################, ''#####,          
                    ,#############################################,,   '####,        
                  ,##################################################,,,,####,       
                ,###########''''           ''''###############################       
              ,#####''   ,,,,##########,,,,          '''####'''          '####       
            ,##' ,,,,###########################,,,                        '##       
           ' ,,###''''                  '''############,,,                           
         ,,##''                                '''############,,,,        ,,,,,,###''
      ,#''                                            '''#######################'''  
     '                                                          ''''####''''         
             ,#######,   #######,   ,#######,      ##                                
            ,#'     '#,  ##    ##  ,#'     '#,    #''#        ,####,   ,####,        
            ##       ##  ##   ,#'  ##            #'  '#       #'       #'  '#        
            ##       ##  #######   ##           ,######,      #####,   #    #        
            '#,     ,#'  ##    ##  '#,     ,#' ,#      #,     #,   #   #,  ,#        
             '#######'   ##     ##  '#######'  #'      '#     '####' # '####'        



                #########################################################
                #                        -***-                          #
                #          Department of theory and spectroscopy        #
                #                                                       #
                #                      Frank Neese                      #
                #                                                       #
                #     Directorship, Architecture, Infrastructure        #
                #                    SHARK, DRIVERS                     #
                #        Core code/Algorithms in most modules           #
                #                                                       #
                #        Max Planck Institute fuer Kohlenforschung      #
                #                Kaiser Wilhelm Platz 1                 #
                #                 D-45470 Muelheim/Ruhr                 #
                #                      Germany                          #
                #                                                       #
                #                  All rights reserved                  #
                #                        -***-                          #
                #########################################################


                         Program Version 6.0.1  -  RELEASE   -


 With contributions from (in alphabetic order):
[Max-Planck-Institut fuer Kohlenforschung]                               
  Daniel Aravena         : Magnetic Suceptibility                        
  Michael Atanasov       : Ab Initio Ligand Field Theory (pilot matlab implementation)
  Alexander A. Auer      : GIAO ZORA, VPT2 properties, NMR spectrum      
  Ute Becker             : All parallelization in ORCA, NUMFREQ, NUMCALC 
  Giovanni Bistoni       : ED, misc. LED, open-shell LED, HFLD           
  Martin Brehm           : Molecular dynamics                            
  Dmytro Bykov           : pre 5.0 version of the SCF Hessian            
  Marcos Casanova-Páez   : Triplet and SCS-CIS(D). UHF-(DLPNO)-IP/EA/STEOM-CCSD. UHF-CVS-IP/STEOM-CCSD   
  Vijay G. Chilkuri      : MRCI spin determinant printing, contributions to CSF-ICE 
  Pauline Colinet        : FMM embedding                                 
  Dipayan Datta          : RHF DLPNO-CCSD density                        
  Achintya Kumar Dutta   : EOM-CC, STEOM-CC                              
  Nicolas Foglia         : Exact transition moments, OPA infrastructure, MCD improvements    
  Dmitry Ganyushin       : Spin-Orbit,Spin-Spin,Magnetic field MRCI      
  Miquel Garcia-Rates    : C-PCM and meta-GGA Hessian, CCSD/C-PCM, Gaussian charge scheme 
  Tiago L. C. Gouveia    : GS-ROHF, GS-ROCIS                             
  Yang Guo               : DLPNO-NEVPT2, F12-NEVPT2, CIM, IAO-localization        
  Andreas Hansen         : Spin unrestricted coupled pair/coupled cluster methods 
  Ingolf Harden          : AUTO-CI MPn and infrastructure                
  Benjamin Helmich-Paris : MC-RPA, TRAH-(SCF,CASSCF), AVAS, COSX integrals, SCF dyn. polar. 
  Lee Huntington         : MR-EOM, pCC                                   
  Robert Izsak           : Overlap fitted RIJCOSX, COSX-SCS-MP3, EOM     
  Riya Kayal             : Wick's Theorem for AUTO-CI, AUTO-CI UHF-CCSDT 
  Emily Kempfer          : AUTO-CI, RHF CISDT and CCSDT                  
  Christian Kollmar      : KDIIS, OOCD, Brueckner-CCSD(T), CCSD density, CASPT2, CASPT2-K, improved NEVPT2 
  Axel Koslowski         : Symmetry handling                             
  Simone Kossmann        : meta-GGA functionals, TD-DFT gradient, OOMP2, (MP2 Hessian; deprecated post 5.0) 
  Lucas Lang             : DCDCAS                                        
  Marvin Lechner         : AUTO-CI (C++ implementation), FIC-MRCC        
  Spencer Leger          : CASSCF response                               
  Dagmar Lenk            : GEPOL surface, SMD, ORCA-2-JSON               
  Dimitrios Liakos       : Extrapolation schemes; Compound Job, initial MDCI parallelization 
  Dimitrios Manganas     : Further ROCIS development; embedding schemes. LFT, Crystal Embedding 
  Dimitrios Pantazis     : SARC Basis sets                               
  Anastasios Papadopoulos: AUTO-CI, single reference methods and gradients 
  Taras Petrenko         : pre 6.0 DFT Hessian and TD-DFT gradient, (ASA, deprecated), ECA, 1-Electron XAS/XES, NRVS 
  Peter Pinski           : DLPNO-MP2, DLPNO-MP2 Gradient                 
  Christoph Reimann      : Effective Core Potentials                     
  Marius Retegan         : Local ZFS, SOC                                
  Christoph Riplinger    : Optimizer, TS searches, QM/MM, DLPNO-CCSD(T), (RO)-DLPNO pert. Triples 
  Michael Roemelt        : Original ROCIS implementation                 
  Masaaki Saitow         : Open-shell DLPNO-CCSD energy and density      
  Barbara Sandhoefer     : DKH picture change effects                    
  Kantharuban Sivalingam : CASSCF convergence/infrastructure, NEVPT2 and variants, FIC-MRCI 
  Bernardo de Souza      : ESD, SOC TD-DFT                               
  Georgi L. Stoychev     : AutoAux, RI-MP2 NMR, DLPNO-MP2 response, X2C  
  Van Anh Tran           : RI-MP2 g-tensors                              
  Willem Van den Heuvel  : Paramagnetic NMR                              
  Zikuan Wang            : NOTCH, Electric field optimization            
  Frank Wennmohs         : Technical directorship and infrastructure     
  Hang Xu                : AUTO-CI-Response properties                   
                                                                         
[FACCTs GmbH]                                                            
  Markus Bursch, Miquel Garcia-Rates, Christoph Riplinger, Bernardo de Souza, Georgi L. Stoychev 
                                                                 
  APM, Basis sets (HGBS, AHGBS, def-TZVP (Ac-Lr), def2-XVPD (La-Lu)), CI-OPT, improved COSX, DLPNO-Multilevel,           
  DOCKER, DRACO, updates on ESD, GOAT, IRC, LR-CPCM, MBIS, meta-GGA TD-DFT gradient, ML-optimized integration grids, 
  MM, NACMEs, nearIR, NEB, NEB-TS, NL-DFT gradient (VV10), 2- and 3-layer-ONIOM, interface openCOSMO-RS, QMMM,   
  Crystal-QMMM, SF, symmetry and pop. for TD-DFT, r2SCAN hybrids, SOLVATOR                                   
                                                                         
[Other institutions]                                                     
  V. Asgeirsson          : NEB                                           
  Christoph Bannwarth    : sTDA-DFT, sTD-DFT, PBEh-3c, B97-3c, D3        
  Sebastian Ehlert       : rSCAN, r2SCAN, r2SCAN-3c, D4, dhf basis sets  
  Marvin Friede          : D4 for Fr, Ra, Ac-Lr                          
  Lars Goerigk           : TD-DFT with DH, B97 family of functionals     
  Stefan Grimme          : VdW corrections, initial TS optimization, DFT functionals, gCP, sTDA/sTD-DF 
  Waldemar Hujo          : DFT-NL                                        
  H. Jonsson             : NEB                                           
  Holger Kruse           : gCP                                           
  Marcel Mueller         : wB97X-3c, vDZP basis set                      
  Hagen Neugebauer       : wr2SCAN                                       
  Tobias Risthaus        : range-separated hybrid DFT                    
  Lukas Wittmann         : regularized MP2, r2SCAN double-hybrids, wr2SCAN        
                                                                         
We gratefully acknowledge several colleagues who have allowed us to      
interface, adapt or use parts of their codes:                            
  Ed Valeev, F. Pavosevic, A. Kumar             : LibInt (2-el integral package), F12 methods 
  Garnet Chan, S. Sharma, J. Yang, R. Olivares  : DMRG                   
  Ulf Ekstrom                                   : XCFun DFT Library      
  Mihaly Kallay                                 : mrcc  (arbitrary order and MRCC methods)
  Frank Weinhold                                : gennbo (NPA and NBO analysis)           
  Simon Mueller                                 : openCOSMO-RS                            
  Christopher J. Cramer and Donald G. Truhlar   : smd solvation model                     
  S Lehtola, MJT Oliveira, MAL Marques          : LibXC Library                           
  Liviu Ungur et al                             : ANISO software                          


 Your calculation uses the libint2 library for the computation of 2-el integrals
 For citations please refer to: http://libint.valeyev.net

 Your ORCA version has been built with support for libXC version: 6.2.2
 For citations please refer to: https://libxc.gitlab.io

 This ORCA versions uses:
   CBLAS   interface :  Fast vector & matrix operations
   LAPACKE interface :  Fast linear algebra routines
   SCALAPACK package :  Parallel linear algebra routines
   Shared memory     :  Shared parallel matrices
   BLAS/LAPACK       :  OpenBLAS 0.3.27  USE64BITINT DYNAMIC_ARCH NO_AFFINITY SkylakeX SINGLE_THREADED
        Core in use  :  SkylakeX
   Copyright (c) 2011-2014, The OpenBLAS Project


NOTE: MaxCore=5000 MB was set to SCF,MP2,MDCI,CIPSI,MRCI and CIS
      => If you want to overwrite this, your respective input block should be placed after the MaxCore statement


***************************************
The coordinates will be read from file: xtbopt.xyz
***************************************


Your calculation utilizes the atom-pairwise dispersion correction
with the Becke-Johnson damping scheme (D3BJ)


================================================================================

----- Orbital basis set information -----
Your calculation utilizes the basis: def2-SVP
   F. Weigend and R. Ahlrichs, Phys. Chem. Chem. Phys. 7, 3297 (2005).

----- AuxJ basis set information -----
Your calculation utilizes the auxiliary basis: def2/J
   F. Weigend, Phys. Chem. Chem. Phys. 8, 1057 (2006).

================================================================================
                                        WARNINGS
                       Please study these warnings very carefully!
================================================================================

WARNING: Old DensityContainer found on disk!
         Will remove this file - 
         If you want to keep old densities, please start your calculation with a different basename. 



WARNING: Found flag for RIJCOSX approximation but no HF exchange needed!
  ===> : RIJCOSX  will be disabled and Split-RI-J is turned on

WARNING: Geometry Optimization
  ===> : Switching off AutoStart
         For restart on a previous wavefunction, please use MOREAD

================================================================================
                                       INPUT FILE
================================================================================
NAME = input.inp
|  1> ! PBE def2-SVP def2/J TightSCF RIJCOSX Opt D3BJ
|  2> 
|  3> 
|  4> 
|  5> %maxcore 5000
|  6> 
|  7> %pal
|  8> nprocs 32
|  9> end
| 10> 
| 11> * xyzfile -1 1 xtbopt.xyz
| 12> 
| 13> 
| 14>                          ****END OF INPUT****
================================================================================

                       *****************************
                       * Geometry Optimization Run *
                       *****************************

Geometry optimization settings:
Update method            Update   .... BFGS
Choice of coordinates    CoordSys .... (2022) Redundant Internals
Initial Hessian          InHess   .... Almloef's Model
Max. no of cycles        MaxIter  .... 50

Convergence Tolerances:
Energy Change            TolE     ....  5.0000e-06 Eh
Max. Gradient            TolMAXG  ....  3.0000e-04 Eh/bohr
RMS Gradient             TolRMSG  ....  1.0000e-04 Eh/bohr
Max. Displacement        TolMAXD  ....  4.0000e-03 bohr
RMS Displacement         TolRMSD  ....  2.0000e-03 bohr
Strict Convergence                .... False

------------------------------------------------------------------------------
                        ORCA OPTIMIZATION COORDINATE SETUP
------------------------------------------------------------------------------

The optimization will be done in redundant internal coordinates (2022)
Making redundant internal coordinates   ...  (2022 redundants) done
Evaluating the initial hessian          ...  (Almloef) done
Evaluating the coordinates              ...  done
Calculating the B-matrix                .... done
Calculating the G-matrix                .... done
Diagonalizing the G-matrix              .... done
The first mode is                       ....   37
The number of degrees of freedom        ....   39

    -----------------------------------------------------------------
                    Redundant Internal Coordinates


    -----------------------------------------------------------------
         Definition                    Initial Value    Approx d2E/dq
    -----------------------------------------------------------------
      1. B(F   2,C   0)                  1.3374         0.630778   
      2. B(F   3,C   0)                  1.3351         0.636085   
      3. B(F   4,C   0)                  1.3433         0.617277   
      4. B(F   5,C   1)                  1.3356         0.634964   
      5. B(F   6,C   1)                  1.3470         0.608946   
      6. B(F   7,C   1)                  1.3302         0.647697   
      7. B(S   8,C   0)                  1.8950         0.263542   
      8. B(S   9,S   8)                  2.6260         0.048453   
      9. B(S   9,C   1)                  1.9078         0.251391   
     10. B(N  10,S   9)                  1.5741         0.767341   
     11. B(N  10,S   8)                  1.5803         0.749962   
     12. B(O  11,S   8)                  1.4303         1.301161   
     13. B(O  12,S   8)                  1.4302         1.301661   
     14. B(O  13,S   9)                  1.4325         1.290579   
     15. B(O  14,S   9)                  1.4312         1.296918   
     16. A(F   4,C   0,S   8)          111.8325         0.388793   
     17. A(F   2,C   0,S   8)          111.7253         0.390265   
     18. A(F   2,C   0,F   3)          107.0743         0.427901   
     19. A(F   3,C   0,S   8)          112.6115         0.390836   
     20. A(F   3,C   0,F   4)          106.6847         0.426246   
     21. A(F   2,C   0,F   4)          106.5366         0.425607   
     22. A(F   6,C   1,F   7)          105.9268         0.426589   
     23. A(F   7,C   1,S   9)          113.9982         0.388854   
     24. A(F   5,C   1,S   9)          112.1742         0.387510   
     25. A(F   5,C   1,F   7)          108.3647         0.429802   
     26. A(F   5,C   1,F   6)          106.0477         0.425076   
     27. A(F   6,C   1,S   9)          109.8495         0.384696   
     28. A(C   0,S   8,S   9)          126.2407         0.282879   
     29. A(O  11,S   8,O  12)          118.0767         0.634141   
     30. A(N  10,S   8,O  12)          114.1012         0.570225   
     31. A(S   9,S   8,O  12)           88.4026         0.365364   
     32. A(N  10,S   8,O  11)          116.0601         0.570183   
     33. A(S   9,S   8,O  11)          116.4924         0.365340   
     34. A(C   0,S   8,O  11)          102.7729         0.471436   
     35. A(S   9,S   8,N  10)           33.5685         0.332940   
     36. A(C   0,S   8,N  10)           97.1425         0.426597   
     37. A(C   0,S   8,O  12)          104.6073         0.471470   
     38. A(C   1,S   9,O  14)          104.6927         0.467093   
     39. A(S   8,S   9,O  13)          144.6291         0.364830   
     40. A(C   1,S   9,S   8)           93.5105         0.280819   
     41. A(C   1,S   9,O  13)          103.1388         0.466674   
     42. A(S   8,S   9,N  10)           33.7192         0.334208   
     43. A(N  10,S   9,O  13)          111.1309         0.571792   
     44. A(C   1,S   9,N  10)          103.9607         0.424746   
     45. A(S   8,S   9,O  14)           87.4642         0.365136   
     46. A(O  13,S   9,O  14)          117.2128         0.632685   
     47. A(N  10,S   9,O  14)          114.7928         0.572328   
     48. A(S   8,N  10,S   9)          112.7123         0.515974   
     49. D(O  11,S   8,C   0,F   2)     57.1090         0.002877   
     50. D(S   9,S   8,C   0,F   3)     40.5004         0.002877   
     51. D(S   9,S   8,C   0,F   2)    -80.0527         0.002877   
     52. D(S   9,S   8,C   0,F   4)    160.6264         0.002877   
     53. D(N  10,S   8,C   0,F   4)    178.9464         0.002877   
     54. D(N  10,S   8,C   0,F   2)    -61.7327         0.002877   
     55. D(N  10,S   8,C   0,F   3)     58.8205         0.002877   
     56. D(O  13,S   9,C   1,F   5)   -100.9765         0.002751   
     57. D(N  10,S   9,C   1,F   7)   -108.5380         0.002751   
     58. D(N  10,S   9,C   1,F   6)    132.7727         0.002751   
     59. D(O  13,S   9,S   8,C   0)     42.9215         0.001519   
     60. D(N  10,S   9,S   8,O  11)    -97.8546         0.001519   
     61. D(S   8,S   9,C   1,F   7)    -76.0438         0.002751   
     62. D(C   1,S   9,S   8,C   0)    -75.7534         0.001519   
     63. D(C   1,S   9,S   8,O  12)     31.2461         0.001519   
     64. D(S   8,S   9,C   1,F   6)    165.2669         0.002751   
     65. D(C   1,S   9,S   8,O  11)    152.0553         0.001519   
     66. D(N  10,S   9,S   8,C   0)     34.3367         0.001519   
     67. D(C   1,S   9,S   8,N  10)   -110.0902         0.001519   
     68. D(N  10,S   9,S   8,O  12)    141.3363         0.001519   
     69. D(S   8,S   9,C   1,F   5)     47.5889         0.002751   
     70. D(N  10,S   9,C   1,F   5)     15.0947         0.002751   
     71. D(S   8,N  10,S   9,O  14)    -38.7490         0.014340   
     72. D(S   8,N  10,S   9,O  13)   -174.6846         0.014340   
     73. D(S   8,N  10,S   9,C   1)     74.9994         0.014340   
     74. D(S   9,N  10,S   8,O  12)    -43.1684         0.013721   
     75. D(S   9,N  10,S   8,O  11)     99.2720         0.013721   
     76. D(S   9,N  10,S   8,C   0)   -152.7102         0.013721   
    -----------------------------------------------------------------

Number of atoms                         .... 15
Number of degrees of freedom            .... 76


         *************************************************************
         *                GEOMETRY OPTIMIZATION CYCLE   1            *
         *************************************************************
---------------------------------
CARTESIAN COORDINATES (ANGSTROEM)
---------------------------------
  C     -0.568129    2.506632   -0.807126
  C      3.768636    2.624815   -1.601814
  F     -1.207843    3.396655   -0.040782
  F     -0.289424    3.113399   -1.963292
  F     -1.453260    1.535146   -1.084977
  F      2.775327    2.918763   -2.444889
  F      4.816823    3.379714   -1.983686
  F      4.133613    1.362399   -1.808044
  S      0.978889    1.826387    0.050157
  S      3.314889    3.015299    0.209659
  N      1.751865    3.198741    0.178554
  O      0.454462    1.284497    1.265525
  O      1.549053    0.921569   -0.899424
  O      3.976628    4.263006    0.449408
  O      3.771211    1.879376    0.951131

----------------------------
CARTESIAN COORDINATES (A.U.)
----------------------------
  NO LB      ZA    FRAG     MASS         X           Y           Z
   0 C     6.0000    0    12.011   -1.073608    4.736849   -1.525247
   1 C     6.0000    0    12.011    7.121689    4.960182   -3.026990
   2 F     9.0000    0    18.998   -2.282492    6.418747   -0.077067
   3 F     9.0000    0    18.998   -0.546932    5.883472   -3.710083
   4 F     9.0000    0    18.998   -2.746263    2.901006   -2.050310
   5 F     9.0000    0    18.998    5.244608    5.515663   -4.620171
   6 F     9.0000    0    18.998    9.102477    6.386734   -3.748623
   7 F     9.0000    0    18.998    7.811396    2.574560   -3.416708
   8 S    16.0000    0    32.060    1.849833    3.451372    0.094784
   9 S    16.0000    0    32.060    6.264233    5.698089    0.396197
  10 N     7.0000    0    14.007    3.310545    6.044745    0.337418
  11 O     8.0000    0    15.999    0.858808    2.427347    2.391495
  12 O     8.0000    0    15.999    2.927286    1.741513   -1.699666
  13 O     8.0000    0    15.999    7.514737    8.055914    0.849258
  14 O     8.0000    0    15.999    7.126555    3.551506    1.797377

--------------------------------
INTERNAL COORDINATES (ANGSTROEM)
--------------------------------
 C      0   0   0     0.000000000000     0.00000000     0.00000000
 C      1   0   0     4.410558297661     0.00000000     0.00000000
 F      1   2   0     1.337406285812   123.76121818     0.00000000
 F      1   2   3     1.335125889873    68.07081139    96.40764587
 F      1   2   4     1.343295768488   129.05089577    94.12505616
 F      2   1   3     1.335605766201    52.29187341   252.35126026
 F      2   1   3     1.346994843500   146.22686451   310.51588859
 F      2   1   3     1.330201088960   105.80063360   151.10049958
 S      1   2   8     1.894975792251    44.63567612    63.58259882
 S      2   1   3     1.907825048257    66.45621913    41.36017092
 N     10   2   1     1.574059395289   103.96074330   348.99751866
 O      9   1   2     1.430310193321   102.77285737   173.71737922
 O      9   1   2     1.430205507225   104.60725111   297.62092769
 O     10   2   1     1.432532982192   103.13883757   232.92635635
 O     10   2   1     1.431199221492   104.69268457   109.78759335

---------------------------
INTERNAL COORDINATES (A.U.)
---------------------------
 C      0   0   0     0.000000000000     0.00000000     0.00000000
 C      1   0   0     8.334747280274     0.00000000     0.00000000
 F      1   2   0     2.527331609969   123.76121818     0.00000000
 F      1   2   3     2.523022286168    68.07081139    96.40764587
 F      1   2   4     2.538461119298   129.05089577    94.12505616
 F      2   1   3     2.523929121005    52.29187341   252.35126026
 F      2   1   3     2.545451358019   146.22686451   310.51588859
 F      2   1   3     2.513715761179   105.80063360   151.10049958
 S      1   2   8     3.580985277766    44.63567612    63.58259882
 S      2   1   3     3.605266852640    66.45621913    41.36017092
 N     10   2   1     2.974541175622   103.96074330   348.99751866
 O      9   1   2     2.702894551932   102.77285737   173.71737922
 O      9   1   2     2.702696723880   104.60725111   297.62092769
 O     10   2   1     2.707095014152   103.13883757   232.92635635
 O     10   2   1     2.704574571701   104.69268457   109.78759335

---------------------
BASIS SET INFORMATION
---------------------
There are 5 groups of distinct atoms

 Group   1 Type C   : 7s4p1d contracted to 3s2p1d pattern {511/31/1}
 Group   2 Type F   : 7s4p1d contracted to 3s2p1d pattern {511/31/1}
 Group   3 Type S   : 10s7p1d contracted to 4s3p1d pattern {5311/511/1}
 Group   4 Type N   : 7s4p1d contracted to 3s2p1d pattern {511/31/1}
 Group   5 Type O   : 7s4p1d contracted to 3s2p1d pattern {511/31/1}

Atom   0C    basis set group =>   1
Atom   1C    basis set group =>   1
Atom   2F    basis set group =>   2
Atom   3F    basis set group =>   2
Atom   4F    basis set group =>   2
Atom   5F    basis set group =>   2
Atom   6F    basis set group =>   2
Atom   7F    basis set group =>   2
Atom   8S    basis set group =>   3
Atom   9S    basis set group =>   3
Atom  10N    basis set group =>   4
Atom  11O    basis set group =>   5
Atom  12O    basis set group =>   5
Atom  13O    basis set group =>   5
Atom  14O    basis set group =>   5
---------------------------------
AUXILIARY/J BASIS SET INFORMATION
---------------------------------
There are 5 groups of distinct atoms

 Group   1 Type C   : 12s5p4d2f1g contracted to 6s4p3d1f1g pattern {711111/2111/211/2/1}
 Group   2 Type F   : 12s5p4d2f1g contracted to 6s4p3d1f1g pattern {711111/2111/211/2/1}
 Group   3 Type S   : 14s5p5d2f1g contracted to 8s4p3d1f1g pattern {71111111/2111/311/2/1}
 Group   4 Type N   : 12s5p4d2f1g contracted to 6s4p3d1f1g pattern {711111/2111/211/2/1}
 Group   5 Type O   : 12s5p4d2f1g contracted to 6s4p3d1f1g pattern {711111/2111/211/2/1}

Atom   0C    basis set group =>   1
Atom   1C    basis set group =>   1
Atom   2F    basis set group =>   2
Atom   3F    basis set group =>   2
Atom   4F    basis set group =>   2
Atom   5F    basis set group =>   2
Atom   6F    basis set group =>   2
Atom   7F    basis set group =>   2
Atom   8S    basis set group =>   3
Atom   9S    basis set group =>   3
Atom  10N    basis set group =>   4
Atom  11O    basis set group =>   5
Atom  12O    basis set group =>   5
Atom  13O    basis set group =>   5
Atom  14O    basis set group =>   5
--------------------------------------------------------------------------
WARNING: There was an error initializing an OpenFabrics device.

  Local host:   ga01
  Local device: mlx5_0
--------------------------------------------------------------------------


           ************************************************************
           *        Program running with 32 parallel MPI-processes    *
           *              working on a common directory               *
           ************************************************************
------------------------------------------------------------------------------
                             ORCA STARTUP CALCULATIONS
                           -- RI-GTO INTEGRALS CHOSEN --
------------------------------------------------------------------------------
------------------------------------------------------------------------------
                   ___                                                        
                  /   \      - P O W E R E D   B Y -                         
                 /     \                                                     
                 |  |  |   _    _      __       _____    __    __             
                 |  |  |  | |  | |    /  \     |  _  \  |  |  /  |          
                  \  \/   | |  | |   /    \    | | | |  |  | /  /          
                 / \  \   | |__| |  /  /\  \   | |_| |  |  |/  /          
                |  |  |   |  __  | /  /__\  \  |    /   |      \           
                |  |  |   | |  | | |   __   |  |    \   |  |\   \          
                \     /   | |  | | |  |  |  |  | |\  \  |  | \   \       
                 \___/    |_|  |_| |__|  |__|  |_| \__\ |__|  \__/        
                                                                              
                      - O R C A' S   B I G   F R I E N D -                    
                                      &                                       
                       - I N T E G R A L  F E E D E R -                       
                                                                              
 v1 FN, 2020, v2 2021, v3 2022-2024                                           
------------------------------------------------------------------------------


----------------------
SHARK INTEGRAL PACKAGE
----------------------

Number of atoms                             ...     15
Number of basis functions                   ...    218
Number of shells                            ...     94
Maximum angular momentum                    ...      2
Integral batch strategy                     ... SHARK/LIBINT Hybrid
RI-J (if used) integral strategy            ... SPLIT-RIJ (Revised 2003 algorithm where possible)
Printlevel                                  ...      1
Contraction scheme used                     ... SEGMENTED contraction
Prescreening option                         ... SCHWARTZ
   Thresh                                   ... 2.500e-11
   Tcut                                     ... 2.500e-12
   Tpresel                                  ... 2.500e-12 
Coulomb Range Separation                    ... NOT USED
Exchange Range Separation                   ... NOT USED
Multipole approximations                    ... NOT USED
Finite Nucleus Model                        ... NOT USED
CABS basis                                  ... NOT available
Auxiliary Coulomb fitting basis             ... AVAILABLE
   # of basis functions in Aux-J            ...    739
   # of shells in Aux-J                     ...    229
   Maximum angular momentum in Aux-J        ...      4
Auxiliary J/K fitting basis                 ... NOT available
Auxiliary Correlation fitting basis         ... NOT available
Auxiliary 'external' fitting basis          ... NOT available

Checking pre-screening integrals            ... done (  0.0 sec) Dimension = 94
Check shell pair data                       ... done (  0.0 sec)
Shell pair information
Shell pair cut-off parameter TPreSel        ...   2.5e-12
Total number of shell pairs                 ...      4465
Shell pairs after pre-screening             ...      3562
Total number of primitive shell pairs       ...     18743
Primitive shell pairs kept                  ...      9454
          la=0 lb=0:    834 shell pairs
          la=1 lb=0:   1246 shell pairs
          la=1 lb=1:    477 shell pairs
          la=2 lb=0:    510 shell pairs
          la=2 lb=1:    403 shell pairs
          la=2 lb=2:     92 shell pairs

Calculating one electron integrals          ... done (  0.0 sec)
Calculating RI/J V-Matrix + Cholesky decomp.... done (  0.0 sec)
Calculating Nuclear repulsion               ... done (  0.0 sec) ENN=   1618.825477702074 Eh

Diagonalization of the overlap matrix:
Smallest eigenvalue                        ... 3.364e-03
Time for diagonalization                   ...    0.004 sec
Threshold for overlap eigenvalues          ... 1.000e-07
Number of eigenvalues below threshold      ... 0
Time for construction of square roots      ...    0.003 sec
Total time needed                          ...    0.009 sec

-------------------
DFT GRID GENERATION
-------------------

General Integration Accuracy     IntAcc      ... 4.388
Radial Grid Type                 RadialGrid  ... OptM3 with GC (2021)
Angular Grid (max. ang.)         AngularGrid ... 4 (Lebedev-302)
Angular grid pruning method      GridPruning ... 4 (adaptive)
Weight generation scheme         WeightScheme... mBecke (2022)
Basis function cutoff            BFCut       ... 1.0000e-11
Integration weight cutoff        WCut        ... 1.0000e-14
Partially contracted basis set               ... off
Rotationally invariant grid construction     ... off
Angular grids for H and He will be reduced by one unit

Total number of grid points                  ...    93651
Total number of batches                      ...     1469
Average number of points per batch           ...       63
Average number of grid points per atom       ...     6243
Initializing property integral containers    ... done (  0.0 sec)

SHARK setup successfully completed in   0.6 seconds

Maximum memory used throughout the entire STARTUP-calculation: 23.4 MB
[ga01:1526879] 31 more processes have sent help message help-mpi-btl-openib.txt / error in device init
[ga01:1526879] Set MCA parameter "orte_base_help_aggregate" to 0 to see all help / error messages
--------------------------------------------------------------------------
WARNING: There was an error initializing an OpenFabrics device.

  Local host:   ga01
  Local device: mlx5_0
--------------------------------------------------------------------------


           ************************************************************
           *        Program running with 32 parallel MPI-processes    *
           *              working on a common directory               *
           ************************************************************
-------------------------------------------------------------------------------
                                 ORCA GUESS
                   Start orbitals & Density for SCF / CASSCF
-------------------------------------------------------------------------------

------------
SCF SETTINGS
------------
Hamiltonian:
 Density Functional     Method          .... DFT(GTOs)
 Exchange Functional    Exchange        .... PBE
   PBE kappa parameter   XKappa         ....  0.804000
   PBE mue parameter    XMuePBE         ....  0.219520
 Correlation Functional Correlation     .... PBE
   PBE beta parameter  CBetaPBE         ....  0.066725
 LDA part of GGA corr.  LDAOpt          .... PW91-LDA
 Gradients option       PostSCFGGA      .... off
   NL short-range parameter             ....  6.400000
 RI-approximation to the Coulomb term is turned on
   Number of AuxJ basis functions       .... 739


General Settings:
 Integral files         IntName         .... input
 Hartree-Fock type      HFTyp           .... RHF
 Total Charge           Charge          ....   -1
 Multiplicity           Mult            ....    1
 Number of Electrons    NEL             ....  138
 Basis Dimension        Dim             ....  218
 Nuclear Repulsion      ENuc            ....   1618.8254777021 Eh

Convergence Acceleration:
 AO-DIIS                CNVDIIS         .... on
   Start iteration      DIISMaxIt       ....    12
   Startup error        DIISStart       ....  0.200000
   # of expansion vecs  DIISMaxEq       ....     5
   Bias factor          DIISBfac        ....   1.050
   Max. coefficient     DIISMaxC        ....  10.000
 MO-DIIS                CNVKDIIS        .... off
 Trust-Rad. Augm. Hess. CNVTRAH         .... auto
   Auto Start mean grad. ratio tolernc. ....  1.125000
   Auto Start start iteration           ....    50
   Auto Start num. interpolation iter.  ....    10
   Max. Number of Micro iterations      ....    24
   Max. Number of Macro iterations      .... Maxiter - #DIIS iter
   Number of Davidson start vectors     ....     2
   Converg. threshold    (grad. norm)   ....   1.000e-05
   Grad. Scal. Fac. for Micro threshold ....   0.100
   Minimum threshold for Micro iter.    ....   1.000e-02
   NR start threshold (gradient norm)   ....   1.000e-04
   Initial trust radius                 ....   0.400
   Minimum AH scaling param. (alpha)    ....   1.000
   Maximum AH scaling param. (alpha)    .... 1000.000
   Quad. conv. algorithm                .... NR
   White noise on init. David. guess    .... on
   Maximum white noise                  ....   0.010
   Pseudo random numbers                .... off
   Inactive MOs                         .... canonical
   Orbital update algorithm             .... Taylor
   Preconditioner                       .... Diag
   Full preconditioner red. dimension   ....   250
 SOSCF                  CNVSOSCF        .... on
   Start iteration      SOSCFMaxIt      ....   150
   Startup grad/error   SOSCFStart      ....  0.003300
   Hessian update       SOSCFHessUp     .... L-BFGS
 Level Shifting         CNVShift        .... on
   Level shift para.    LevelShift      ....    0.2500
   Turn off err/grad.   ShiftErr        ....    0.0010
 Zerner damping         CNVZerner       .... off
 Static damping         CNVDamp         .... on
   Fraction old density DampFac         ....    0.7000
   Max. Damping (<1)    DampMax         ....    0.9800
   Min. Damping (>=0)   DampMin         ....    0.0000
   Turn off err/grad.   DampErr         ....    0.1000

SCF Procedure:
 Maximum # iterations   MaxIter         ....   125
 SCF integral mode      SCFMode         .... Direct
   Integral package                     .... SHARK and LIBINT hybrid scheme
 Reset frequency        DirectResetFreq ....    20
 Integral Threshold     Thresh          ....  2.500e-11 Eh
 Primitive CutOff       TCut            ....  2.500e-12 Eh

Convergence Tolerance:
 Convergence Check Mode ConvCheckMode   .... Total+1el-Energy
 Convergence forced     ConvForced      .... 0
 Energy Change          TolE            ....  1.000e-08 Eh
 1-El. energy change                    ....  1.000e-05 Eh
 Orbital Gradient       TolG            ....  1.000e-05
 Orbital Rotation angle TolX            ....  1.000e-05
 DIIS Error             TolErr          ....  5.000e-07

------------------------------
INITIAL GUESS: MODEL POTENTIAL
------------------------------
Loading Hartree-Fock densities                     ... done
Calculating cut-offs                               ... done
Initializing the effective Hamiltonian             ... done
Setting up the integral package (SHARK)            ... done
Starting the Coulomb interaction                   ... done (   0.0 sec)
Making the grid                                    ... done (   0.1 sec)
Mapping shells                                     ... done
Starting the XC term evaluation                    ... done (   0.0 sec)
  promolecular density results
     # of electrons  =    136.998834804
     EX              =   -159.450897360
     EC              =     -4.983571727
     EX+EC           =   -164.434469087
Transforming the Hamiltonian                       ... done (   0.0 sec)
Diagonalizing the Hamiltonian                      ... done (   0.0 sec)
Back transforming the eigenvectors                 ... done (   0.0 sec)
Now organizing SCF variables                       ... done
                      ------------------
                      INITIAL GUESS DONE (   0.1 sec)
                      ------------------
             **** ENERGY FILE WAS UPDATED (input.en.tmp) ****
Finished Guess after   0.9 sec
Maximum memory used throughout the entire GUESS-calculation: 13.8 MB
[ga01:1527015] 31 more processes have sent help message help-mpi-btl-openib.txt / error in device init
[ga01:1527015] Set MCA parameter "orte_base_help_aggregate" to 0 to see all help / error messages
--------------------------------------------------------------------------
WARNING: There was an error initializing an OpenFabrics device.

  Local host:   ga01
  Local device: mlx5_0
--------------------------------------------------------------------------


           ************************************************************
           *        Program running with 32 parallel MPI-processes    *
           *              working on a common directory               *
           ************************************************************

-------------------------------------------------------------------------------------------
                                      ORCA LEAN-SCF
                              memory conserving SCF solver
-------------------------------------------------------------------------------------------

----------------------------------------D-I-I-S--------------------------------------------
Iteration    Energy (Eh)           Delta-E    RMSDP     MaxDP     DIISErr   Damp  Time(sec)
-------------------------------------------------------------------------------------------
               ***  Starting incremental Fock matrix formation  ***
    1    -1824.1768425018592552     0.00e+00  6.12e-03  2.16e-01  2.83e-01  0.700   0.2
    2    -1824.5399903567165438    -3.63e-01  2.91e-03  8.87e-02  1.00e-01  0.700   0.2
                               ***Turning on AO-DIIS***
    3    -1824.6174932612145767    -7.75e-02  8.32e-04  2.33e-02  2.31e-02  0.700   0.2
    4    -1824.6859509908629207    -6.85e-02  1.42e-03  4.03e-02  2.61e-02  0.000   0.2
    5    -1824.8613596407897148    -1.75e-01  5.55e-04  1.24e-02  1.60e-02  0.000   0.2
                              *** Initializing SOSCF ***
---------------------------------------S-O-S-C-F--------------------------------------
Iteration    Energy (Eh)           Delta-E    RMSDP     MaxDP     MaxGrad    Time(sec)
--------------------------------------------------------------------------------------
    6    -1824.8627859432192508    -1.43e-03  1.84e-04  4.09e-03  2.78e-03     0.2
               *** Restarting incremental Fock matrix formation ***
    7    -1824.8628770414782139    -9.11e-05  1.58e-04  4.25e-03  4.89e-04     0.2
    8    -1824.8628264020132974     5.06e-05  1.02e-04  2.92e-03  1.33e-03     0.2
    9    -1824.8629018557064683    -7.55e-05  5.27e-05  1.76e-03  1.94e-04     0.2
   10    -1824.8628979654206432     3.89e-06  3.18e-05  1.17e-03  3.51e-04     0.2
   11    -1824.8629046361031669    -6.67e-06  1.90e-05  3.96e-04  6.27e-05     0.2
   12    -1824.8629043785365411     2.58e-07  1.04e-05  2.62e-04  9.17e-05     0.2
   13    -1824.8629050219180954    -6.43e-07  8.15e-06  2.23e-04  2.84e-05     0.2
   14    -1824.8629049040148402     1.18e-07  5.21e-06  1.50e-04  4.66e-05     0.1
   15    -1824.8629050817587540    -1.78e-07  2.10e-06  8.54e-05  6.55e-06     0.2
   16    -1824.8629050658917095     1.59e-08  1.38e-06  4.53e-05  1.31e-05     0.2
   17    -1824.8629050794140767    -1.35e-08  5.20e-07  2.45e-05  1.72e-06     0.1
                  *** Gradient check signals convergence ***

               *****************************************************
               *                     SUCCESS                       *
               *           SCF CONVERGED AFTER  17 CYCLES          *
               *****************************************************

             **** ENERGY FILE WAS UPDATED (input.en.tmp) ****

----------------
TOTAL SCF ENERGY
----------------

Total Energy       :      -1824.86290507941408 Eh          -49657.04416 eV

Components:
Nuclear Repulsion  :       1618.82547770207361 Eh           44050.48073 eV
Electronic Energy  :      -3443.68838278148769 Eh          -93707.52489 eV
One Electron Energy:      -5771.80446607392787 Eh         -157058.78424 eV
Two Electron Energy:       2328.11608329244018 Eh           63351.25934 eV

Virial components:
Potential Energy   :      -3642.83457035011133 Eh          -99126.56816 eV
Kinetic Energy     :       1817.97166527069726 Eh           49469.52399 eV
Virial Ratio       :          2.00379062003020

DFT components:
N(Alpha)           :       68.999957639830 electrons
N(Beta)            :       68.999957639830 electrons
N(Total)           :      137.999915279659 electrons
E(X)               :     -160.538330641483 Eh       
E(C)               :       -5.029924102062 Eh       
E(XC)              :     -165.568254743545 Eh       

---------------
SCF CONVERGENCE
---------------

  Last Energy change         ...    1.3522e-08  Tolerance :   1.0000e-08
  Last MAX-Density change    ...    2.4509e-05  Tolerance :   1.0000e-07
  Last RMS-Density change    ...    5.2031e-07  Tolerance :   5.0000e-09
  Last DIIS Error            ...    2.7849e-03  Tolerance :   5.0000e-07
  Last Orbital Gradient      ...    1.7188e-06  Tolerance :   1.0000e-05
  Last Orbital Rotation      ...    5.0290e-06  Tolerance :   1.0000e-05


----------------
ORBITAL ENERGIES
----------------

  NO   OCC          E(Eh)            E(eV) 
   0   2.0000     -88.105106     -2397.4618 
   1   2.0000     -88.101362     -2397.3599 
   2   2.0000     -24.174335      -657.8171 
   3   2.0000     -24.171631      -657.7435 
   4   2.0000     -24.171448      -657.7385 
   5   2.0000     -24.162855      -657.5047 
   6   2.0000     -24.162410      -657.4926 
   7   2.0000     -24.161343      -657.4636 
   8   2.0000     -18.604044      -506.2418 
   9   2.0000     -18.603652      -506.2311 
  10   2.0000     -18.598374      -506.0875 
  11   2.0000     -18.598133      -506.0809 
  12   2.0000     -13.844699      -376.7334 
  13   2.0000      -9.995431      -271.9895 
  14   2.0000      -9.987704      -271.7792 
  15   2.0000      -7.719317      -210.0533 
  16   2.0000      -7.714970      -209.9350 
  17   2.0000      -5.745783      -156.3507 
  18   2.0000      -5.745191      -156.3346 
  19   2.0000      -5.745047      -156.3307 
  20   2.0000      -5.741404      -156.2315 
  21   2.0000      -5.740948      -156.2191 
  22   2.0000      -5.740703      -156.2125 
  23   2.0000      -1.075733       -29.2722 
  24   2.0000      -1.066385       -29.0178 
  25   2.0000      -0.982589       -26.7376 
  26   2.0000      -0.982198       -26.7270 
  27   2.0000      -0.975238       -26.5376 
  28   2.0000      -0.969946       -26.3936 
  29   2.0000      -0.906614       -24.6702 
  30   2.0000      -0.881441       -23.9852 
  31   2.0000      -0.776596       -21.1322 
  32   2.0000      -0.769075       -20.9276 
  33   2.0000      -0.700169       -19.0526 
  34   2.0000      -0.537040       -14.6136 
  35   2.0000      -0.509211       -13.8563 
  36   2.0000      -0.475214       -12.9312 
  37   2.0000      -0.430063       -11.7026 
  38   2.0000      -0.410422       -11.1681 
  39   2.0000      -0.407006       -11.0752 
  40   2.0000      -0.400022       -10.8852 
  41   2.0000      -0.397524       -10.8172 
  42   2.0000      -0.395483       -10.7616 
  43   2.0000      -0.320760        -8.7283 
  44   2.0000      -0.299358        -8.1459 
  45   2.0000      -0.284991        -7.7550 
  46   2.0000      -0.281912        -7.6712 
  47   2.0000      -0.280670        -7.6374 
  48   2.0000      -0.274558        -7.4711 
  49   2.0000      -0.271124        -7.3777 
  50   2.0000      -0.268359        -7.3024 
  51   2.0000      -0.255119        -6.9421 
  52   2.0000      -0.250764        -6.8236 
  53   2.0000      -0.243346        -6.6218 
  54   2.0000      -0.241766        -6.5788 
  55   2.0000      -0.234899        -6.3919 
  56   2.0000      -0.233216        -6.3461 
  57   2.0000      -0.221387        -6.0243 
  58   2.0000      -0.211081        -5.7438 
  59   2.0000      -0.204528        -5.5655 
  60   2.0000      -0.161460        -4.3935 
  61   2.0000      -0.155430        -4.2295 
  62   2.0000      -0.146907        -3.9975 
  63   2.0000      -0.134761        -3.6670 
  64   2.0000      -0.127384        -3.4663 
  65   2.0000      -0.121246        -3.2993 
  66   2.0000      -0.112287        -3.0555 
  67   2.0000      -0.095843        -2.6080 
  68   2.0000      -0.084373        -2.2959 
  69   0.0000       0.151086         4.1113 
  70   0.0000       0.165046         4.4911 
  71   0.0000       0.180642         4.9155 
  72   0.0000       0.195648         5.3238 
  73   0.0000       0.199620         5.4319 
  74   0.0000       0.212394         5.7795 
  75   0.0000       0.219399         5.9701 
  76   0.0000       0.259507         7.0615 
  77   0.0000       0.299540         8.1509 
  78   0.0000       0.305708         8.3187 
  79   0.0000       0.315569         8.5871 
*Only the first 10 virtual orbitals were printed.

                    ********************************
                    * MULLIKEN POPULATION ANALYSIS *
                    ********************************

-----------------------
MULLIKEN ATOMIC CHARGES
-----------------------
   0 C :    0.362958
   1 C :    0.362072
   2 F :   -0.144798
   3 F :   -0.137527
   4 F :   -0.153663
   5 F :   -0.135763
   6 F :   -0.156899
   7 F :   -0.126499
   8 S :    0.658732
   9 S :    0.617961
  10 N :   -0.474002
  11 O :   -0.414279
  12 O :   -0.418869
  13 O :   -0.428561
  14 O :   -0.410863
Sum of atomic charges:   -1.0000000

--------------------------------
MULLIKEN REDUCED ORBITAL CHARGES
--------------------------------
  0 C s       :     3.032930  s :     3.032930
      pz      :     0.784689  p :     2.429785
      px      :     0.894022
      py      :     0.751074
      dz2     :     0.034851  d :     0.174327
      dxz     :     0.032107
      dyz     :     0.041637
      dx2y2   :     0.026484
      dxy     :     0.039248

  1 C s       :     3.032739  s :     3.032739
      pz      :     0.948739  p :     2.430479
      px      :     0.739938
      py      :     0.741802
      dz2     :     0.031327  d :     0.174709
      dxz     :     0.033405
      dyz     :     0.026788
      dx2y2   :     0.040505
      dxy     :     0.042684

  2 F s       :     3.890346  s :     3.890346
      pz      :     1.761681  p :     5.246502
      px      :     1.786253
      py      :     1.698568
      dz2     :     0.001269  d :     0.007950
      dxz     :     0.001407
      dyz     :     0.002238
      dx2y2   :     0.001196
      dxy     :     0.001840

  3 F s       :     3.889083  s :     3.889083
      pz      :     1.565118  p :     5.240403
      px      :     1.876789
      py      :     1.798497
      dz2     :     0.002611  d :     0.008042
      dxz     :     0.001716
      dyz     :     0.002587
      dx2y2   :     0.000525
      dxy     :     0.000603

  4 F s       :     3.893568  s :     3.893568
      pz      :     1.873397  p :     5.252333
      px      :     1.694069
      py      :     1.684867
      dz2     :     0.001010  d :     0.007762
      dxz     :     0.000952
      dyz     :     0.001123
      dx2y2   :     0.001747
      dxy     :     0.002930

  5 F s       :     3.889856  s :     3.889856
      pz      :     1.706770  p :     5.237806
      px      :     1.661338
      py      :     1.869698
      dz2     :     0.001456  d :     0.008101
      dxz     :     0.003011
      dyz     :     0.000860
      dx2y2   :     0.001482
      dxy     :     0.001293

  6 F s       :     3.892501  s :     3.892501
      pz      :     1.852046  p :     5.256722
      px      :     1.636548
      py      :     1.768128
      dz2     :     0.001016  d :     0.007675
      dxz     :     0.001531
      dyz     :     0.000874
      dx2y2   :     0.001642
      dxy     :     0.002613

  7 F s       :     3.888067  s :     3.888067
      pz      :     1.871598  p :     5.230198
      px      :     1.855695
      py      :     1.502905
      dz2     :     0.001112  d :     0.008234
      dxz     :     0.000237
      dyz     :     0.001964
      dx2y2   :     0.002760
      dxy     :     0.002161

  8 S s       :     5.356856  s :     5.356856
      pz      :     3.019745  p :     9.158330
      px      :     3.114993
      py      :     3.023591
      dz2     :     0.186302  d :     0.826081
      dxz     :     0.169203
      dyz     :     0.185779
      dx2y2   :     0.125383
      dxy     :     0.159414

  9 S s       :     5.381073  s :     5.381073
      pz      :     3.147676  p :     9.174506
      px      :     3.037982
      py      :     2.988848
      dz2     :     0.166965  d :     0.826461
      dxz     :     0.109337
      dyz     :     0.159870
      dx2y2   :     0.213531
      dxy     :     0.176757

 10 N s       :     3.613566  s :     3.613566
      pz      :     1.563397  p :     3.833978
      px      :     1.026181
      py      :     1.244400
      dz2     :     0.003707  d :     0.026457
      dxz     :     0.002718
      dyz     :     0.003833
      dx2y2   :     0.008894
      dxy     :     0.007304

 11 O s       :     3.831885  s :     3.831885
      pz      :     1.389880  p :     4.564658
      px      :     1.577937
      py      :     1.596840
      dz2     :     0.005574  d :     0.017735
      dxz     :     0.004630
      dyz     :     0.004607
      dx2y2   :     0.001476
      dxy     :     0.001448

 12 O s       :     3.836415  s :     3.836415
      pz      :     1.469478  p :     4.564507
      px      :     1.586018
      py      :     1.509011
      dz2     :     0.003964  d :     0.017947
      dxz     :     0.003124
      dyz     :     0.004735
      dx2y2   :     0.002930
      dxy     :     0.003195

 13 O s       :     3.827395  s :     3.827395
      pz      :     1.643491  p :     4.583519
      px      :     1.568295
      py      :     1.371733
      dz2     :     0.002050  d :     0.017647
      dxz     :     0.001389
      dyz     :     0.004047
      dx2y2   :     0.004870
      dxy     :     0.005290

 14 O s       :     3.826809  s :     3.826809
      pz      :     1.539957  p :     4.566278
      px      :     1.615313
      py      :     1.411008
      dz2     :     0.003183  d :     0.017776
      dxz     :     0.002060
      dyz     :     0.004930
      dx2y2   :     0.003813
      dxy     :     0.003791



                     *******************************
                     * LOEWDIN POPULATION ANALYSIS *
                     *******************************

----------------------
LOEWDIN ATOMIC CHARGES
----------------------
   0 C :   -0.035923
   1 C :   -0.049338
   2 F :   -0.056521
   3 F :   -0.050930
   4 F :   -0.063330
   5 F :   -0.051353
   6 F :   -0.070036
   7 F :   -0.039804
   8 S :    0.998235
   9 S :    0.993359
  10 N :   -0.637781
  11 O :   -0.477984
  12 O :   -0.482183
  13 O :   -0.488275
  14 O :   -0.488134

-------------------------------
LOEWDIN REDUCED ORBITAL CHARGES
-------------------------------
  0 C s       :     2.964695  s :     2.964695
      pz      :     0.872247  p :     2.703093
      px      :     0.985343
      py      :     0.845503
      dz2     :     0.071433  d :     0.368135
      dxz     :     0.067938
      dyz     :     0.091122
      dx2y2   :     0.050625
      dxy     :     0.087017

  1 C s       :     2.971060  s :     2.971060
      pz      :     1.041208  p :     2.710888
      px      :     0.836361
      py      :     0.833319
      dz2     :     0.068394  d :     0.367390
      dxz     :     0.072494
      dyz     :     0.049393
      dx2y2   :     0.086114
      dxy     :     0.090995

  2 F s       :     3.736318  s :     3.736318
      pz      :     1.779612  p :     5.306791
      px      :     1.801487
      py      :     1.725692
      dz2     :     0.001785  d :     0.013412
      dxz     :     0.002457
      dyz     :     0.004075
      dx2y2   :     0.001603
      dxy     :     0.003492

  3 F s       :     3.734989  s :     3.734989
      pz      :     1.613116  p :     5.302380
      px      :     1.879696
      py      :     1.809569
      dz2     :     0.004520  d :     0.013561
      dxz     :     0.002621
      dyz     :     0.004762
      dx2y2   :     0.000760
      dxy     :     0.000898

  4 F s       :     3.738187  s :     3.738187
      pz      :     1.874398  p :     5.312132
      px      :     1.723783
      py      :     1.713950
      dz2     :     0.001796  d :     0.013012
      dxz     :     0.001445
      dyz     :     0.001634
      dx2y2   :     0.002485
      dxy     :     0.005652

  5 F s       :     3.736360  s :     3.736360
      pz      :     1.737051  p :     5.301360
      px      :     1.695797
      py      :     1.868513
      dz2     :     0.002186  d :     0.013633
      dxz     :     0.005908
      dyz     :     0.001228
      dx2y2   :     0.002448
      dxy     :     0.001863

  6 F s       :     3.740622  s :     3.740622
      pz      :     1.860098  p :     5.316522
      px      :     1.671959
      py      :     1.784465
      dz2     :     0.001713  d :     0.012892
      dxz     :     0.002621
      dyz     :     0.001407
      dx2y2   :     0.002275
      dxy     :     0.004875

  7 F s       :     3.732766  s :     3.732766
      pz      :     1.876477  p :     5.293180
      px      :     1.854703
      py      :     1.562000
      dz2     :     0.002059  d :     0.013859
      dxz     :     0.000375
      dyz     :     0.003062
      dx2y2   :     0.005022
      dxy     :     0.003341

  8 S s       :     5.038847  s :     5.038847
      pz      :     2.947117  p :     8.883338
      px      :     2.996866
      py      :     2.939355
      dz2     :     0.236350  d :     1.079581
      dxz     :     0.223349
      dyz     :     0.246881
      dx2y2   :     0.156706
      dxy     :     0.216294

  9 S s       :     5.045370  s :     5.045370
      pz      :     3.016460  p :     8.882683
      px      :     2.941195
      py      :     2.925029
      dz2     :     0.225043  d :     1.078588
      dxz     :     0.131191
      dyz     :     0.208114
      dx2y2   :     0.288528
      dxy     :     0.225713

 10 N s       :     3.417394  s :     3.417394
      pz      :     1.588471  p :     4.168043
      px      :     1.190508
      py      :     1.389064
      dz2     :     0.007782  d :     0.052343
      dxz     :     0.004647
      dyz     :     0.005184
      dx2y2   :     0.019492
      dxy     :     0.015239

 11 O s       :     3.671863  s :     3.671863
      pz      :     1.511268  p :     4.776244
      px      :     1.619354
      py      :     1.645622
      dz2     :     0.009552  d :     0.029877
      dxz     :     0.007954
      dyz     :     0.008195
      dx2y2   :     0.001871
      dxy     :     0.002305

 12 O s       :     3.670824  s :     3.670824
      pz      :     1.559920  p :     4.780976
      px      :     1.626951
      py      :     1.594105
      dz2     :     0.005215  d :     0.030383
      dxz     :     0.005617
      dyz     :     0.010010
      dx2y2   :     0.004123
      dxy     :     0.005418

 13 O s       :     3.670735  s :     3.670735
      pz      :     1.660513  p :     4.788125
      px      :     1.623804
      py      :     1.503808
      dz2     :     0.004079  d :     0.029416
      dxz     :     0.001882
      dyz     :     0.005522
      dx2y2   :     0.007804
      dxy     :     0.010129

 14 O s       :     3.673346  s :     3.673346
      pz      :     1.597280  p :     4.784699
      px      :     1.661909
      py      :     1.525510
      dz2     :     0.003972  d :     0.030089
      dxz     :     0.003280
      dyz     :     0.010053
      dx2y2   :     0.006472
      dxy     :     0.006311



                      *****************************
                      * MAYER POPULATION ANALYSIS *
                      *****************************

  NA   - Mulliken gross atomic population
  ZA   - Total nuclear charge
  QA   - Mulliken gross atomic charge
  VA   - Mayer's total valence
  BVA  - Mayer's bonded valence
  FA   - Mayer's free valence

  ATOM       NA         ZA         QA         VA         BVA        FA
  0 C      5.6370     6.0000     0.3630     4.4075     4.4075     0.0000
  1 C      5.6379     6.0000     0.3621     4.4132     4.4132    -0.0000
  2 F      9.1448     9.0000    -0.1448     1.2056     1.2056     0.0000
  3 F      9.1375     9.0000    -0.1375     1.2163     1.2163     0.0000
  4 F      9.1537     9.0000    -0.1537     1.2065     1.2065    -0.0000
  5 F      9.1358     9.0000    -0.1358     1.2246     1.2246    -0.0000
  6 F      9.1569     9.0000    -0.1569     1.2029     1.2029    -0.0000
  7 F      9.1265     9.0000    -0.1265     1.2326     1.2326     0.0000
  8 S     15.3413    16.0000     0.6587     5.4310     5.4310     0.0000
  9 S     15.3820    16.0000     0.6180     5.4608     5.4608     0.0000
 10 N      7.4740     7.0000    -0.4740     2.6279     2.6279     0.0000
 11 O      8.4143     8.0000    -0.4143     2.0006     2.0006     0.0000
 12 O      8.4189     8.0000    -0.4189     1.9961     1.9961     0.0000
 13 O      8.4286     8.0000    -0.4286     1.9947     1.9947    -0.0000
 14 O      8.4109     8.0000    -0.4109     1.9870     1.9870     0.0000

  Mayer bond orders larger than 0.100000
B(  0-C ,  2-F ) :   1.1380 B(  0-C ,  3-F ) :   1.1467 B(  0-C ,  4-F ) :   1.1393 
B(  0-C ,  8-S ) :   0.7136 B(  0-C , 11-O ) :   0.1048 B(  0-C , 12-O ) :   0.1011 
B(  1-C ,  5-F ) :   1.1489 B(  1-C ,  6-F ) :   1.1346 B(  1-C ,  7-F ) :   1.1577 
B(  1-C ,  9-S ) :   0.6900 B(  8-S , 10-N ) :   1.1268 B(  8-S , 11-O ) :   1.7289 
B(  8-S , 12-O ) :   1.6786 B(  9-S , 10-N ) :   1.1608 B(  9-S , 13-O ) :   1.7406 
B(  9-S , 14-O ) :   1.7135 

-------
TIMINGS
-------

Total SCF time: 0 days 0 hours 0 min 3 sec 

Total time                  ....       3.736 sec
Sum of individual times     ....       3.602 sec  ( 96.4%)

SCF preparation             ....       0.864 sec  ( 23.1%)
Fock matrix formation       ....       2.079 sec  ( 55.7%)
  Startup                   ....       0.080 sec  (  3.8% of F)
  Split-RI-J                ....       0.554 sec  ( 26.6% of F)
  XC integration            ....       1.156 sec  ( 55.6% of F)
    XC Preparation          ....       0.000 sec  (  0.0% of XC)
    Basis function eval.    ....       0.127 sec  ( 11.0% of XC)
    Density eval.           ....       0.070 sec  (  6.0% of XC)
    XC-Functional eval.     ....       0.029 sec  (  2.5% of XC)
    XC-Potential eval.      ....       0.080 sec  (  6.9% of XC)
Diagonalization             ....       0.000 sec  (  0.0%)
Density matrix formation    ....       0.134 sec  (  3.6%)
Total Energy calculation    ....       0.083 sec  (  2.2%)
Population analysis         ....       0.029 sec  (  0.8%)
Orbital Transformation      ....       0.037 sec  (  1.0%)
Orbital Orthonormalization  ....       0.000 sec  (  0.0%)
DIIS solution               ....       0.188 sec  (  5.0%)
SOSCF solution              ....       0.188 sec  (  5.0%)
Finished LeanSCF after   3.8 sec

Maximum memory used throughout the entire LEANSCF-calculation: 18.5 MB
[ga01:1527151] 31 more processes have sent help message help-mpi-btl-openib.txt / error in device init
[ga01:1527151] Set MCA parameter "orte_base_help_aggregate" to 0 to see all help / error messages


-------------------------------------------------------------------------------
                          DFT DISPERSION CORRECTION                            
                                                                               
                              DFTD3 V3.1  Rev 1                                
                          USING Becke-Johnson damping                          
-------------------------------------------------------------------------------
The PBE functional is recognized
Active option DFTDOPT                   ...         4   

molecular C6(AA) [au] = 4189.445725 


            DFT-D V3
 parameters
 s6 scaling factor         :     1.0000 
 a1 scaling factor         :     0.4289 
 s8 scaling factor         :     0.7875 
 a2 scaling factor         :     4.4407 
 ad hoc parameters k1-k3   :    16.0000     1.3333    -4.0000 

 Edisp/kcal,au: -12.560665176434  -0.020016691948 
 E6   /kcal   :  -8.456836972 
 E8   /kcal   :  -4.103828204 
 % E8         :  32.672061127 

-------------------------   ----------------
Dispersion correction           -0.020016692
-------------------------   ----------------


-------------------------   --------------------
FINAL SINGLE POINT ENERGY     -1824.882921771362
-------------------------   --------------------

--------------------------------------------------------------------------
WARNING: There was an error initializing an OpenFabrics device.

  Local host:   ga01
  Local device: mlx5_0
--------------------------------------------------------------------------


           ************************************************************
           *        Program running with 32 parallel MPI-processes    *
           *              working on a common directory               *
           ************************************************************
------------------------------------------------------------------------------
                         ORCA SCF GRADIENT CALCULATION
------------------------------------------------------------------------------

Nuc. rep. gradient        (SHARK) ... done (  0.0 sec)
HCore & Overlap gradient  (SHARK) ... done (  0.0 sec)
Split-RIJ-J gradient      (SHARK) ... done (  0.1 sec)
XC gradient                       ... done (  0.2 sec)
Dispersion correction             ... done (  0.1 sec)

-------------------
DISPERSION GRADIENT
-------------------

   1   C   :   -0.000341454    0.000014804   -0.000065732
   2   C   :    0.000299491    0.000043842   -0.000226489
   3   F   :   -0.000250206    0.000126757    0.000004445
   4   F   :   -0.000257224    0.000107597   -0.000203274
   5   F   :   -0.000238390   -0.000047798   -0.000091423
   6   F   :    0.000140414    0.000069665   -0.000359477
   7   F   :    0.000191468    0.000066890   -0.000187623
   8   F   :    0.000231426   -0.000149623   -0.000224175
   9   S   :   -0.000431025   -0.000259014    0.000247637
  10   S   :    0.000465801    0.000242128    0.000248262
  11   N   :   -0.000006828    0.000162415    0.000207931
  12   O   :   -0.000186615   -0.000219693    0.000274476
  13   O   :   -0.000093473   -0.000358363   -0.000070553
  14   O   :    0.000200474    0.000270360    0.000168324
  15   O   :    0.000276141   -0.000069967    0.000277672

Difference to translation invariance:
           :    0.0000000000   -0.0000000000    0.0000000000

Difference to rotation invariance:
           :    0.0000000000   -0.0000000000    0.0000000000

Norm of the Dispersion gradient    ...    0.0014856377
RMS gradient                       ...    0.0002214658
MAX gradient                       ...    0.0004658008

------------------
CARTESIAN GRADIENT
------------------

   1   C   :    0.000614477   -0.004102897    0.001134675
   2   C   :   -0.003603541   -0.002385922    0.008936754
   3   F   :    0.003380037   -0.008309571   -0.011550795
   4   F   :   -0.008246854   -0.004432516    0.011461079
   5   F   :    0.001620317    0.013611239   -0.001108590
   6   F   :    0.011712904   -0.003121635    0.004938757
   7   F   :   -0.010158972   -0.009676909   -0.003062395
   8   F   :   -0.001266426    0.013321583   -0.003888026
   9   S   :    0.041884719   -0.030270445    0.015500404
  10   S   :   -0.004199879   -0.003933437    0.033324251
  11   N   :    0.012786647   -0.027003488   -0.005767063
  12   O   :    0.021250314    0.020474982   -0.056638632
  13   O   :   -0.026287850    0.045815385    0.045893624
  14   O   :   -0.020283349   -0.055189486   -0.007075220
  15   O   :   -0.019202544    0.055203117   -0.032098823

Difference to translation invariance:
           :    0.0000000000   -0.0000000000    0.0000000000

Difference to rotation invariance:
           :   -0.0003306412    0.0003248248   -0.0001272856

Norm of the Cartesian gradient     ...    0.1523815404
RMS gradient                       ...    0.0227156989
MAX gradient                       ...    0.0566386322

-------
TIMINGS
-------

Total SCF gradient time     ....        0.460 sec

Densities                   ....       0.002 sec  (  0.4%)
One electron gradient       ....       0.022 sec  (  4.8%)
RI-J Coulomb gradient       ....       0.133 sec  ( 28.9%)
XC gradient                 ....       0.235 sec  ( 51.2%)

Maximum memory used throughout the entire SCFGRAD-calculation: 30.9 MB
[ga01:1527288] 31 more processes have sent help message help-mpi-btl-openib.txt / error in device init
[ga01:1527288] Set MCA parameter "orte_base_help_aggregate" to 0 to see all help / error messages
------------------------------------------------------------------------------
                         ORCA GEOMETRY RELAXATION STEP
------------------------------------------------------------------------------

Reading the OPT-File                    .... done
Getting information on internals        .... done
Copying old internal coords+grads       .... done
Making the new internal coordinates     .... (2022 redundants) done
Validating the new internal coordinates .... (2022 redundants) done
Calculating the B-matrix                .... done
Calculating the G,G- and P matrices     .... done
Transforming gradient to internals      .... done
Projecting the internal gradient        .... done
Number of atoms                         ....  15
Number of internal coordinates          ....  76
Current Energy                          .... -1824.882921771 Eh
Current gradient norm                   ....     0.152381540 Eh/bohr
Maximum allowed component of the step   ....  0.300
Current trust radius                    ....  0.300
Evaluating the initial hessian          ....  (Almloef) done
Projecting the Hessian                  .... done
Forming the augmented Hessian           .... done
Diagonalizing the augmented Hessian     .... done
Last element of RFO vector              ....  0.973447456
Lowest eigenvalues of augmented Hessian:
 -0.023285938  0.002771822  0.002878575  0.010771738  0.025825674
Length of the computed step             ....  0.235154526
The final length of the internal step   ....  0.235154526
Converting the step to Cartesian space:
 Initial RMS(Int)=    0.0269740740
Transforming coordinates:
 Iter   0:  RMS(Cart)=    0.0632372509 RMS(Int)=    0.0270641700
done
Storing new coordinates                 .... done

                                .--------------------.
          ----------------------|Geometry convergence|-------------------------
          Item                value                   Tolerance       Converged
          ---------------------------------------------------------------------
          RMS gradient        0.0164946429            0.0001000000      NO
          MAX gradient        0.0699304288            0.0003000000      NO
          RMS step            0.0269740740            0.0020000000      NO
          MAX step            0.1359740472            0.0040000000      NO
          ........................................................
          Max(Bonds)      0.0720      Max(Angles)    1.94
          Max(Dihed)        2.63      Max(Improp)    0.00
          ---------------------------------------------------------------------

The optimization has not yet converged - more geometry cycles are needed


    ---------------------------------------------------------------------------
                         Redundant Internal Coordinates
                            (Angstroem and degrees)

        Definition                    Value    dE/dq     Step     New-Value
    ----------------------------------------------------------------------------
     1. B(F   2,C   0)                1.3374 -0.013768  0.0111    1.3485   
     2. B(F   3,C   0)                1.3351 -0.013657  0.0110    1.3461   
     3. B(F   4,C   0)                1.3433 -0.010681  0.0088    1.3521   
     4. B(F   5,C   1)                1.3356 -0.012518  0.0101    1.3457   
     5. B(F   6,C   1)                1.3470 -0.012457  0.0104    1.3574   
     6. B(F   7,C   1)                1.3302 -0.012393  0.0098    1.3400   
     7. B(S   8,C   0)                1.8950  0.001022 -0.0019    1.8931   
     8. B(S   9,S   8)                2.6260 -0.030316  0.0720    2.6979   
     9. B(S   9,C   1)                1.9078 -0.007002  0.0135    1.9213   
    10. B(N  10,S   9)                1.5741 -0.020611  0.0249    1.5990   
    11. B(N  10,S   8)                1.5803 -0.020463  0.0261    1.6064   
    12. B(O  11,S   8)                1.4303 -0.063678  0.0254    1.4558   
    13. B(O  12,S   8)                1.4302 -0.069930  0.0279    1.4581   
    14. B(O  13,S   9)                1.4325 -0.058626  0.0236    1.4561   
    15. B(O  14,S   9)                1.4312 -0.066561  0.0267    1.4579   
    16. A(F   4,C   0,S   8)          111.83  0.012364   -1.84    109.99   
    17. A(F   2,C   0,S   8)          111.73  0.003988   -0.40    111.32   
    18. A(F   2,C   0,F   3)          107.07 -0.006551    1.15    108.23   
    19. A(F   3,C   0,S   8)          112.61  0.005910   -0.70    111.91   
    20. A(F   3,C   0,F   4)          106.68 -0.008689    0.98    107.66   
    21. A(F   2,C   0,F   4)          106.54 -0.009017    1.07    107.61   
    22. A(F   6,C   1,F   7)          105.93 -0.008723    1.08    107.01   
    23. A(F   7,C   1,S   9)          114.00  0.008303   -1.13    112.86   
    24. A(F   5,C   1,S   9)          112.17  0.002444   -0.25    111.92   
    25. A(F   5,C   1,F   7)          108.36 -0.004999    0.69    109.05   
    26. A(F   5,C   1,F   6)          106.05 -0.007985    1.11    107.16   
    27. A(F   6,C   1,S   9)          109.85  0.009124   -1.25    108.60   
    28. A(C   0,S   8,S   9)          126.24  0.001180   -0.84    125.40   
    29. A(O  11,S   8,O  12)          118.08 -0.000278    0.13    118.21   
    30. A(N  10,S   8,O  12)          114.10 -0.003401    0.26    114.36   
    31. A(S   9,S   8,O  12)           88.40 -0.002228    0.73     89.13   
    32. A(N  10,S   8,O  11)          116.06  0.003930   -0.79    115.27   
    33. A(S   9,S   8,O  11)          116.49  0.003404   -0.32    116.17   
    34. A(C   0,S   8,O  11)          102.77 -0.002853    0.29    103.06   
    35. A(S   9,S   8,N  10)           33.57 -0.001196   -0.98     32.59   
    36. A(C   0,S   8,N  10)           97.14  0.002025    0.13     97.27   
    37. A(C   0,S   8,O  12)          104.61  0.000679    0.16    104.76   
    38. A(C   1,S   9,O  14)          104.69  0.001770   -0.17    104.52   
    39. A(S   8,S   9,O  13)          144.63  0.006211   -1.56    143.07   
    40. A(C   1,S   9,S   8)           93.51 -0.006505    1.64     95.15   
    41. A(C   1,S   9,O  13)          103.14  0.003030   -0.59    102.55   
    42. A(S   8,S   9,N  10)           33.72 -0.001152   -0.96     32.76   
    43. A(N  10,S   9,O  13)          111.13  0.007370   -0.51    110.62   
    44. A(C   1,S   9,N  10)          103.96 -0.005967    0.41    104.37   
    45. A(S   8,S   9,O  14)           87.46  0.001619    0.17     87.63   
    46. A(O  13,S   9,O  14)          117.21 -0.006497    0.83    118.04   
    47. A(N  10,S   9,O  14)          114.79  0.000025   -0.04    114.75   
    48. A(S   8,N  10,S   9)          112.71  0.002348    1.94    114.65   
    49. D(O  11,S   8,C   0,F   2)     57.11  0.003375   -0.88     56.23   
    50. D(S   9,S   8,C   0,F   3)     40.50 -0.001300    0.93     41.43   
    51. D(S   9,S   8,C   0,F   2)    -80.05  0.000125    0.23    -79.83   
    52. D(S   9,S   8,C   0,F   4)    160.63  0.000464    0.39    161.02   
    53. D(N  10,S   8,C   0,F   4)    178.95 -0.000351    0.01    178.95   
    54. D(N  10,S   8,C   0,F   2)    -61.73 -0.000690   -0.16    -61.89   
    55. D(N  10,S   8,C   0,F   3)     58.82 -0.002115    0.55     59.37   
    56. D(O  13,S   9,C   1,F   5)   -100.98 -0.004240    1.26    -99.72   
    57. D(N  10,S   9,C   1,F   7)   -108.54  0.001009    0.78   -107.75   
    58. D(N  10,S   9,C   1,F   6)    132.77  0.000264    1.03    133.80   
    59. D(O  13,S   9,S   8,C   0)     42.92  0.000094    1.82     44.74   
    60. D(N  10,S   9,S   8,O  11)    -97.85 -0.001905    1.27    -96.59   
    61. D(S   8,S   9,C   1,F   7)    -76.04 -0.000956    0.25    -75.79   
    62. D(C   1,S   9,S   8,C   0)    -75.75 -0.000284    1.57    -74.19   
    63. D(C   1,S   9,S   8,O  12)     31.25 -0.000891    2.15     33.40   
    64. D(S   8,S   9,C   1,F   6)    165.27 -0.001701    0.50    165.76   
    65. D(C   1,S   9,S   8,O  11)    152.06 -0.001565    2.63    154.68   
    66. D(N  10,S   9,S   8,C   0)     34.34 -0.000624    0.21     34.54   
    67. D(C   1,S   9,S   8,N  10)   -110.09  0.000340    1.36   -108.73   
    68. D(N  10,S   9,S   8,O  12)    141.34 -0.001231    0.79    142.13   
    69. D(S   8,S   9,C   1,F   5)     47.59  0.000802    0.08     47.67   
    70. D(N  10,S   9,C   1,F   5)     15.09  0.002767    0.62     15.71   
    71. D(S   8,N  10,S   9,O  14)    -38.75 -0.002054    1.84    -36.91   
    72. D(S   8,N  10,S   9,O  13)   -174.68 -0.000106    1.18   -173.50   
    73. D(S   8,N  10,S   9,C   1)     75.00 -0.003583    1.86     76.86   
    74. D(S   9,N  10,S   8,O  12)    -43.17  0.000042    0.80    -42.37   
    75. D(S   9,N  10,S   8,O  11)     99.27  0.000229    0.31     99.58   
    76. D(S   9,N  10,S   8,C   0)   -152.71 -0.000787    0.48   -152.23   
    ----------------------------------------------------------------------------

Geometry step timings:
Preparation and reading OPT file:      0.000 s ( 8.186 %)
Internal coordinates            :      0.000 s ( 0.901 %)
B/P matrices and projection     :      0.000 s (18.449 %)
Hessian update/contruction      :      0.001 s (28.398 %)
Making the step                 :      0.000 s (15.785 %)
Converting the step to Cartesian:      0.000 s ( 2.468 %)
Storing new data                :      0.000 s ( 5.719 %)
Checking convergence            :      0.000 s ( 0.157 %)
Final printing                  :      0.001 s (19.624 %)
Total time                      :      0.003 s
--------------------------------------------------------------------------
WARNING: There was an error initializing an OpenFabrics device.

  Local host:   ga01
  Local device: mlx5_0
--------------------------------------------------------------------------
[ga01:1527425] 31 more processes have sent help message help-mpi-btl-openib.txt / error in device init
[ga01:1527425] Set MCA parameter "orte_base_help_aggregate" to 0 to see all help / error messages

Time for energy+gradient        :      9.073 s
Time for complete geometry iter :     10.253 s

         *************************************************************
         *                GEOMETRY OPTIMIZATION CYCLE   2            *
         *************************************************************
---------------------------------
CARTESIAN COORDINATES (ANGSTROEM)
---------------------------------
  C     -0.600667    2.507339   -0.806438
  C      3.812010    2.651358   -1.629177
  F     -1.219197    3.430714   -0.042647
  F     -0.289992    3.076308   -1.986143
  F     -1.488507    1.517092   -1.050111
  F      2.815659    2.966721   -2.476913
  F      4.878149    3.424011   -1.959250
  F      4.173399    1.377327   -1.833573
  S      0.927486    1.806218    0.063600
  S      3.338810    3.008815    0.198324
  N      1.749550    3.182209    0.170521
  O      0.389520    1.304439    1.319795
  O      1.484354    0.844784   -0.880699
  O      3.989760    4.286848    0.449827
  O      3.812407    1.842217    0.933284

----------------------------
CARTESIAN COORDINATES (A.U.)
----------------------------
  NO LB      ZA    FRAG     MASS         X           Y           Z
   0 C     6.0000    0    12.011   -1.135097    4.738185   -1.523947
[...]
    74. D(S   9,N  10,S   8,O  12)    -17.21  0.000032    6.30    -10.90   
    75. D(S   9,N  10,S   8,O  11)    124.31 -0.000692    5.97    130.29   
    76. D(S   9,N  10,S   8,C   0)   -127.28  0.000124    5.40   -121.89   
    ----------------------------------------------------------------------------

Geometry step timings:
Preparation and reading OPT file:      0.001 s (10.911 %)
Internal coordinates            :      0.000 s ( 0.474 %)
B/P matrices and projection     :      0.002 s (36.391 %)
Hessian update/contruction      :      0.001 s (14.015 %)
Making the step                 :      0.001 s (15.754 %)
Converting the step to Cartesian:      0.000 s ( 1.285 %)
Storing new data                :      0.000 s ( 3.479 %)
Checking convergence            :      0.000 s ( 0.178 %)
Final printing                  :      0.001 s (17.474 %)
Total time                      :      0.005 s
--------------------------------------------------------------------------
WARNING: There was an error initializing an OpenFabrics device.

  Local host:   ga01
  Local device: mlx5_0
--------------------------------------------------------------------------
[ga01:1534376] 31 more processes have sent help message help-mpi-btl-openib.txt / error in device init
[ga01:1534376] Set MCA parameter "orte_base_help_aggregate" to 0 to see all help / error messages

Time for energy+gradient        :      8.546 s
Time for complete geometry iter :      9.705 s

         *************************************************************
         *                GEOMETRY OPTIMIZATION CYCLE  12            *
         *************************************************************
---------------------------------
CARTESIAN COORDINATES (ANGSTROEM)
---------------------------------
  C     -0.359141    2.340156   -0.959368
  C      3.595019    2.923812   -1.699931
  F     -0.962931    3.485235   -0.588819
  F      0.279514    2.555454   -2.126237
  F     -1.315943    1.411977   -1.173013
  F      2.934688    3.960517   -2.254167
  F      4.905787    3.049662   -2.018149
  F      3.138279    1.790363   -2.253756
  S      0.835436    1.716333    0.366014
  S      3.417107    2.939459    0.189682
  N      1.823563    2.996212    0.451662
  O     -0.021249    1.625137    1.570812
  O      1.404736    0.475342   -0.216012
  O      3.995972    4.254503    0.546993
  O      4.101905    1.702239    0.634689

----------------------------
CARTESIAN COORDINATES (A.U.)
----------------------------
  NO LB      ZA    FRAG     MASS         X           Y           Z
   0 C     6.0000    0    12.011   -0.678678    4.422254   -1.812942
   1 C     6.0000    0    12.011    6.793602    5.525203   -3.212405
   2 F     9.0000    0    18.998   -1.819677    6.586140   -1.112707
   3 F     9.0000    0    18.998    0.528205    4.829108   -4.018005
   4 F     9.0000    0    18.998   -2.486773    2.668250   -2.216673
   5 F     9.0000    0    18.998    5.545757    7.484292   -4.259758
   6 F     9.0000    0    18.998    9.270593    5.763027   -3.813748
   7 F     9.0000    0    18.998    5.930487    3.383295   -4.258982
   8 S    16.0000    0    32.060    1.578745    3.243399    0.691665
   9 S    16.0000    0    32.060    6.457396    5.554773    0.358447
  10 N     7.0000    0    14.007    3.446034    5.662020    0.853517
  11 O     8.0000    0    15.999   -0.040155    3.071063    2.968404
  12 O     8.0000    0    15.999    2.654566    0.898266   -0.408203
  13 O     8.0000    0    15.999    7.551293    8.039845    1.033667
  14 O     8.0000    0    15.999    7.751478    3.216766    1.199388

--------------------------------
INTERNAL COORDINATES (ANGSTROEM)
--------------------------------
 C      0   0   0     0.000000000000     0.00000000     0.00000000
 C      1   0   0     4.065029991557     0.00000000     0.00000000
 F      1   2   0     1.346504706966   111.35936151     0.00000000
 F      1   2   3     1.347522139130    50.08005759    96.52994441
 F      1   2   3     1.350048861801   139.39995246   165.57096118
 F      2   1   3     1.348321915630    73.07596710   317.25592806
 F      2   1   3     1.354699993021   175.79867523   214.43414996
 F      2   1   3     1.341655735622    67.83707824   198.74036300
 S      1   2   3     1.890186251689    63.92013728   255.39146581
 S      2   1   3     1.898034909030    74.25444676    75.51674277
 N     10   2   1     1.615932086805   104.72202329   349.32883078
 O      9   1   2     1.481136157014   103.01161026   159.30113234
 O      9   1   2     1.484221623065   104.08683982   284.45731596
 O     10   2   1     1.480572756271   102.17725314   236.36555443
 O     10   2   1     1.482462394709   104.39877675   111.54177797

---------------------------
INTERNAL COORDINATES (A.U.)
---------------------------
 C      0   0   0     0.000000000000     0.00000000     0.00000000
 C      1   0   0     7.681793410219     0.00000000     0.00000000
 F      1   2   0     2.544525134201   111.35936151     0.00000000
 F      1   2   3     2.546447802351    50.08005759    96.52994441
 F      1   2   3     2.551222616216   139.39995246   165.57096118
 F      2   1   3     2.547959160905    73.07596710   317.25592806
 F      2   1   3     2.560011980435   175.79867523   214.43414996
 F      2   1   3     2.535361906330    67.83707824   198.74036300
 S      1   2   3     3.571934357794    63.92013728   255.39146581
 S      2   1   3     3.586766170688    74.25444676    75.51674277
 N     10   2   1     3.053669095077   104.72202329   349.32883078
 O      9   1   2     2.798941703805   103.01161026   159.30113234
 O      9   1   2     2.804772389636   104.08683982   284.45731596
 O     10   2   1     2.797877030697   102.17725314   236.36555443
 O     10   2   1     2.801447929836   104.39877675   111.54177797

--------------------------------------------------------------------------
WARNING: There was an error initializing an OpenFabrics device.

  Local host:   ga01
  Local device: mlx5_0
--------------------------------------------------------------------------


           ************************************************************
           *        Program running with 32 parallel MPI-processes    *
           *              working on a common directory               *
           ************************************************************
------------------------------------------------------------------------------
                   ___                                                        
                  /   \      - P O W E R E D   B Y -                         
                 /     \                                                     
                 |  |  |   _    _      __       _____    __    __             
                 |  |  |  | |  | |    /  \     |  _  \  |  |  /  |          
                  \  \/   | |  | |   /    \    | | | |  |  | /  /          
                 / \  \   | |__| |  /  /\  \   | |_| |  |  |/  /          
                |  |  |   |  __  | /  /__\  \  |    /   |      \           
                |  |  |   | |  | | |   __   |  |    \   |  |\   \          
                \     /   | |  | | |  |  |  |  | |\  \  |  | \   \       
                 \___/    |_|  |_| |__|  |__|  |_| \__\ |__|  \__/        
                                                                              
                      - O R C A' S   B I G   F R I E N D -                    
                                      &                                       
                       - I N T E G R A L  F E E D E R -                       
                                                                              
 v1 FN, 2020, v2 2021, v3 2022-2024                                           
------------------------------------------------------------------------------


----------------------
SHARK INTEGRAL PACKAGE
----------------------

Number of atoms                             ...     15
Number of basis functions                   ...    218
Number of shells                            ...     94
Maximum angular momentum                    ...      2
Integral batch strategy                     ... SHARK/LIBINT Hybrid
RI-J (if used) integral strategy            ... SPLIT-RIJ (Revised 2003 algorithm where possible)
Printlevel                                  ...      1
Contraction scheme used                     ... SEGMENTED contraction
Prescreening option                         ... SCHWARTZ
   Thresh                                   ... 2.500e-11
   Tcut                                     ... 2.500e-12
   Tpresel                                  ... 2.500e-12 
Coulomb Range Separation                    ... NOT USED
Exchange Range Separation                   ... NOT USED
Multipole approximations                    ... NOT USED
Finite Nucleus Model                        ... NOT USED
CABS basis                                  ... NOT available
Auxiliary Coulomb fitting basis             ... AVAILABLE
   # of basis functions in Aux-J            ...    739
   # of shells in Aux-J                     ...    229
   Maximum angular momentum in Aux-J        ...      4
Auxiliary J/K fitting basis                 ... NOT available
Auxiliary Correlation fitting basis         ... NOT available
Auxiliary 'external' fitting basis          ... NOT available

Checking pre-screening integrals            ... done (  0.0 sec) Dimension = 94
Check shell pair data                       ... done (  0.0 sec)
Shell pair information
Shell pair cut-off parameter TPreSel        ...   2.5e-12
Total number of shell pairs                 ...      4465
Shell pairs after pre-screening             ...      3552
Total number of primitive shell pairs       ...     18743
Primitive shell pairs kept                  ...      9409
          la=0 lb=0:    837 shell pairs
          la=1 lb=0:   1247 shell pairs
          la=1 lb=1:    476 shell pairs
          la=2 lb=0:    506 shell pairs
          la=2 lb=1:    398 shell pairs
          la=2 lb=2:     88 shell pairs

Calculating one electron integrals          ... done (  0.0 sec)
Calculating RI/J V-Matrix + Cholesky decomp.... done (  0.0 sec)
Calculating Nuclear repulsion               ... done (  0.0 sec) ENN=   1591.942536226717 Eh

Diagonalization of the overlap matrix:
Smallest eigenvalue                        ... 4.013e-03
Time for diagonalization                   ...    0.004 sec
Threshold for overlap eigenvalues          ... 1.000e-07
Number of eigenvalues below threshold      ... 0
Time for construction of square roots      ...    0.003 sec
Total time needed                          ...    0.009 sec

-------------------
DFT GRID GENERATION
-------------------

General Integration Accuracy     IntAcc      ... 4.388
Radial Grid Type                 RadialGrid  ... OptM3 with GC (2021)
Angular Grid (max. ang.)         AngularGrid ... 4 (Lebedev-302)
Angular grid pruning method      GridPruning ... 4 (adaptive)
Weight generation scheme         WeightScheme... mBecke (2022)
Basis function cutoff            BFCut       ... 1.0000e-11
Integration weight cutoff        WCut        ... 1.0000e-14
Partially contracted basis set               ... off
Rotationally invariant grid construction     ... off
Angular grids for H and He will be reduced by one unit

Total number of grid points                  ...    93691
Total number of batches                      ...     1472
Average number of points per batch           ...       63
Average number of grid points per atom       ...     6246
Initializing property integral containers    ... done (  0.0 sec)

SHARK setup successfully completed in   0.6 seconds

Maximum memory used throughout the entire STARTUP-calculation: 23.8 MB
[ga01:1534512] 31 more processes have sent help message help-mpi-btl-openib.txt / error in device init
[ga01:1534512] Set MCA parameter "orte_base_help_aggregate" to 0 to see all help / error messages
--------------------------------------------------------------------------
WARNING: There was an error initializing an OpenFabrics device.

  Local host:   ga01
  Local device: mlx5_0
--------------------------------------------------------------------------


           ************************************************************
           *        Program running with 32 parallel MPI-processes    *
           *              working on a common directory               *
           ************************************************************
Occupation numbers will be reassigned to an Aufbau configuration
             **** ENERGY FILE WAS UPDATED (input.en.tmp) ****
Finished Guess after   0.8 sec
Maximum memory used throughout the entire GUESS-calculation: 11.1 MB
[ga01:1534648] 31 more processes have sent help message help-mpi-btl-openib.txt / error in device init
[ga01:1534648] Set MCA parameter "orte_base_help_aggregate" to 0 to see all help / error messages
--------------------------------------------------------------------------
WARNING: There was an error initializing an OpenFabrics device.

  Local host:   ga01
  Local device: mlx5_0
--------------------------------------------------------------------------


           ************************************************************
           *        Program running with 32 parallel MPI-processes    *
           *              working on a common directory               *
           ************************************************************
----------------------------------------D-I-I-S--------------------------------------------
Iteration    Energy (Eh)           Delta-E    RMSDP     MaxDP     DIISErr   Damp  Time(sec)
-------------------------------------------------------------------------------------------
               ***  Starting incremental Fock matrix formation  ***
    1    -1824.8544221789604762     0.00e+00  5.06e-04  1.29e-02  8.05e-02  0.700   0.2
    2    -1824.8636808301478140    -9.26e-03  4.81e-04  1.20e-02  6.18e-02  0.700   0.2
                               ***Turning on AO-DIIS***
    3    -1824.8706399552399944    -6.96e-03  3.67e-04  8.80e-03  4.45e-02  0.700   0.2
    4    -1824.8755044919901138    -4.86e-03  8.89e-04  2.14e-02  3.14e-02  0.000   0.2
                              *** Initializing SOSCF ***
---------------------------------------S-O-S-C-F--------------------------------------
Iteration    Energy (Eh)           Delta-E    RMSDP     MaxDP     MaxGrad    Time(sec)
--------------------------------------------------------------------------------------
    5    -1824.8868362551813789    -1.13e-02  5.97e-05  1.92e-03  1.49e-03     0.2
               *** Restarting incremental Fock matrix formation ***
    6    -1824.8868293086250105     6.95e-06  1.54e-04  4.61e-03  6.54e-04     0.2
    7    -1824.8867014316913355     1.28e-04  1.20e-04  3.40e-03  2.20e-03     0.1
    8    -1824.8868443877634036    -1.43e-04  2.37e-05  6.23e-04  8.90e-05     0.1
    9    -1824.8868422298558016     2.16e-06  1.70e-05  4.78e-04  1.74e-04     0.2
   10    -1824.8868448645700937    -2.63e-06  8.01e-06  1.97e-04  2.79e-05     0.2
   11    -1824.8868446124085949     2.52e-07  5.50e-06  1.30e-04  6.10e-05     0.1
   12    -1824.8868449218400656    -3.09e-07  2.34e-06  6.35e-05  7.28e-06     0.1
   13    -1824.8868448936611912     2.82e-08  1.50e-06  4.01e-05  1.41e-05     0.1
   14    -1824.8868449278090793    -3.41e-08  4.41e-07  1.19e-05  1.63e-06     0.1
                  *** Gradient check signals convergence ***

               *****************************************************
               *                     SUCCESS                       *
               *           SCF CONVERGED AFTER  14 CYCLES          *
               *****************************************************

             **** ENERGY FILE WAS UPDATED (input.en.tmp) ****

----------------
TOTAL SCF ENERGY
----------------

Total Energy       :      -1824.88684492780908 Eh          -49657.69560 eV

Components:
Nuclear Repulsion  :       1591.94253622671727 Eh           43318.95870 eV
Electronic Energy  :      -3416.82938115452635 Eh          -92976.65430 eV
One Electron Energy:      -5717.93053484132361 Eh         -155592.80004 eV
Two Electron Energy:       2301.10115368679726 Eh           62616.14574 eV

Virial components:
Potential Energy   :      -3641.93389526123065 Eh          -99102.05954 eV
Kinetic Energy     :       1817.04705033342179 Eh           49444.36394 eV
Virial Ratio       :          2.00431457985249

DFT components:
N(Alpha)           :       69.000047350374 electrons
N(Beta)            :       69.000047350374 electrons
N(Total)           :      138.000094700748 electrons
E(X)               :     -160.308210326791 Eh       
E(C)               :       -5.007862740698 Eh       
E(XC)              :     -165.316073067489 Eh       

---------------
SCF CONVERGENCE
---------------

  Last Energy change         ...    3.4148e-08  Tolerance :   1.0000e-08
  Last MAX-Density change    ...    1.1859e-05  Tolerance :   1.0000e-07
  Last RMS-Density change    ...    4.4124e-07  Tolerance :   5.0000e-09
  Last DIIS Error            ...    1.4883e-03  Tolerance :   5.0000e-07
  Last Orbital Gradient      ...    1.6302e-06  Tolerance :   1.0000e-05
  Last Orbital Rotation      ...    5.1673e-06  Tolerance :   1.0000e-05


Total SCF time: 0 days 0 hours 0 min 3 sec 
Finished LeanSCF after   3.1 sec

Maximum memory used throughout the entire LEANSCF-calculation: 19.7 MB
[ga01:1534785] 31 more processes have sent help message help-mpi-btl-openib.txt / error in device init
[ga01:1534785] Set MCA parameter "orte_base_help_aggregate" to 0 to see all help / error messages


-------------------------------------------------------------------------------
                          DFT DISPERSION CORRECTION                            
                                                                               
                              DFTD3 V3.1  Rev 1                                
                          USING Becke-Johnson damping                          
-------------------------------------------------------------------------------
-------------------------   ----------------
Dispersion correction           -0.019379233
-------------------------   ----------------


-------------------------   --------------------
FINAL SINGLE POINT ENERGY     -1824.906224160320
-------------------------   --------------------

--------------------------------------------------------------------------
WARNING: There was an error initializing an OpenFabrics device.

  Local host:   ga01
  Local device: mlx5_0
--------------------------------------------------------------------------
[ga01:1534929] *** Process received signal ***
[ga01:1534929] Signal: Segmentation fault (11)
[ga01:1534929] Signal code: Address not mapped (1)
[ga01:1534929] Failing at address: (nil)
[ga01:1534929] [ 0] /usr/lib64/libpthread.so.0(+0x12cf0)[0x146e488f7cf0]
[ga01:1534929] [ 1] /usr/lib64/libc.so.6(+0xc84d2)[0x146e485e74d2]
[ga01:1534929] [ 2] /home/yongsang/.openmpi/lib/libopen-rte.so.40(+0x2b27d)[0x146e499e227d]
[ga01:1534929] [ 3] /home/yongsang/.openmpi/lib/libopen-rte.so.40(orte_show_help_recv+0x147)[0x146e499e26f7]
[ga01:1534929] [ 4] /home/yongsang/.openmpi/lib/libopen-rte.so.40(orte_rml_base_process_msg+0x39b)[0x146e49a3e21b]
[ga01:1534929] [ 5] /home/yongsang/.openmpi/lib/libopen-pal.so.40(opal_libevent2022_event_base_loop+0x769)[0x146e4972c5b9]
[ga01:1534929] [ 6] mpirun[0x400f39]
[ga01:1534929] [ 7] /usr/lib64/libc.so.6(__libc_start_main+0xe5)[0x146e48559d85]
[ga01:1534929] [ 8] mpirun[0x400cde]
[ga01:1534929] *** End of error message ***

ORCA finished by error termination in SCF gradient
Calling Command: mpirun -np 32  /home/yongsang/orca_6_0_1_linux_x86-64_shared_openmpi416/orca_scfgrad_mpi input.scfgrad.inp input 
[file orca_tools/qcmsg.cpp, line 394]: 
  .... aborting the run

[file orca_tools/qcmsg.cpp, line 394]: 
  .... aborting the run

